
    -----------------------------------------------------------------------
          Psi4: An Open-Source Ab Initio Electronic Structure Package
                               Psi4 1.4a2.dev191 

                         Git: Rev {master} 0ab5346 


    R. M. Parrish, L. A. Burns, D. G. A. Smith, A. C. Simmonett,
    A. E. DePrince III, E. G. Hohenstein, U. Bozkaya, A. Yu. Sokolov,
    R. Di Remigio, R. M. Richard, J. F. Gonthier, A. M. James,
    H. R. McAlexander, A. Kumar, M. Saitow, X. Wang, B. P. Pritchard,
    P. Verma, H. F. Schaefer III, K. Patkowski, R. A. King, E. F. Valeev,
    F. A. Evangelista, J. M. Turney, T. D. Crawford, and C. D. Sherrill,
    J. Chem. Theory Comput. 13(7) pp 3185--3197 (2017).
    (doi: 10.1021/acs.jctc.7b00174)


                         Additional Contributions by
    P. Kraus, H. Kruse, M. H. Lechner, M. C. Schieber, R. A. Shaw,
    A. Alenaizan, R. Galvelis, Z. L. Glick, S. Lehtola, and J. P. Misiewicz

    -----------------------------------------------------------------------


    Psi4 started on: Tuesday, 02 February 2021 02:39PM

    Process ID: 108089
    Host:       c2-18.compute.lan
    PSIDATADIR: /apps/gb/PSI4/1.4.0/share/psi4
    Memory:     500.0 MiB
    Threads:    1
    
  ==> Input File <==

--------------------------------------------------------------------------
memory 10 GB

molecule  {
0 1
S
S 1 r1
S 1 r2 2 a1
r1 = 2.0
r2 = 2.1
a1 = 120.0
}

set {
reference uks
basis aug-cc-pvtz
g_convergence gau_verytight
dft_spherical_points 590
dft_radial_points 99
}

optimize('wb97m-v')
frequencies('wb97m-v')

--------------------------------------------------------------------------

  Memory set to   9.313 GiB by Python driver.
gradient() will perform gradient computation by finite difference of analytic energies.

         ----------------------------------------------------------
                                   FINDIF
                     R. A. King and Jonathon Misiewicz
         ---------------------------------------------------------

  Using finite-differences of energies to determine gradients.
    Generating geometries for use with 3-point formula.
    Displacement size will be 5.00e-03.
    Number of atoms is 3.
    Number of symmetric SALCs is 3.
    Translations projected? 1. Rotations projected? 1.
    Number of geometries (including reference) is 7.

  //>>>>>>>>>>>>>>>>>>>>>>>>>>>>>>>>>>>//
  //    Loading displacement 1 of 7    //
  //<<<<<<<<<<<<<<<<<<<<<<<<<<<<<<<<<<<//

*** tstart() called on c2-18.compute.lan
*** at Tue Feb  2 14:39:47 2021

   => Loading Basis Set <=

    Name: AUG-CC-PVTZ
    Role: ORBITAL
    Keyword: BASIS
    atoms 1-3 entry S          line   906 file /apps/gb/PSI4/1.4.0/share/psi4/basis/aug-cc-pvtz.gbs 


         ---------------------------------------------------------
                                   SCF
               by Justin Turney, Rob Parrish, Andy Simmonett
                          and Daniel G. A. Smith
                              UKS Reference
                        1 Threads,   9536 MiB Core
         ---------------------------------------------------------

  ==> Geometry <==

    Molecular point group: cs
    Full point group: Cs

    Geometry (in Angstrom), charge = 0, multiplicity = 1:

       Center              X                  Y                   Z               Mass       
    ------------   -----------------  -----------------  -----------------  -----------------
         S            0.606217782649     0.316666666667     0.000000000000    31.972071174400
         S            0.606217782649    -1.683333333333     0.000000000000    31.972071174400
         S           -1.212435565298     1.366666666667     0.000000000000    31.972071174400

  Running in cs symmetry.

  Rotational constants: A =      0.75413  B =      0.08359  C =      0.07525 [cm^-1]
  Rotational constants: A =  22608.14975  B =   2506.04720  C =   2255.97858 [MHz]
  Nuclear repulsion =  170.392939668640480

  Charge       = 0
  Multiplicity = 1
  Electrons    = 48
  Nalpha       = 24
  Nbeta        = 24

  ==> Algorithm <==

  SCF Algorithm Type is DF.
  DIIS enabled.
  MOM disabled.
  Fractional occupation disabled.
  Guess Type is SAD.
  Energy threshold   = 1.00e-08
  Density threshold  = 1.00e-08
  Integral threshold = 0.00e+00

  ==> Primary Basis <==

  Basis Set: AUG-CC-PVTZ
    Blend: AUG-CC-PVTZ
    Number of shells: 48
    Number of basis function: 150
    Number of Cartesian functions: 177
    Spherical Harmonics?: true
    Max angular momentum: 3

  ==> DFT Potential <==

   => Composite Functional: WB97M-V <= 

    wB97M-V Hyb-GGA Exchange-Correlation Functional

    N. Mardirossian and M. Head-Gordon, J. Chem. Phys. 144, 214110 (2016)

    Deriv               =              1
    GGA                 =           TRUE
    Meta                =           TRUE

    Exchange Hybrid     =           TRUE
    MP2 Hybrid          =          FALSE

   => Exchange-Correlation Functionals <=

    1.0000   wB97M-V exchange-correlation functional

   => Exact (HF) Exchange <=

    0.8500            HF,LR [omega = 0.3000]
    0.1500               HF 

   => VV10 Non-Local Parameters <=

    VV10 B              =     6.0000E+00
    VV10 C              =     1.0000E-02

   => Molecular Quadrature <=

    Radial Scheme          =       TREUTLER
    Pruning Scheme         =           NONE
    Nuclear Scheme         =       TREUTLER

    BS radius alpha        =              1
    Pruning alpha          =              1
    Radial Points          =             99
    Spherical Points       =            590
    Total Points           =         169927
    Total Blocks           =           1392
    Max Points             =            256
    Max Functions          =            150
    Weights Tolerance      =       1.00E-15

   => Loading Basis Set <=

    Name: (AUG-CC-PVTZ AUX)
    Role: JKFIT
    Keyword: DF_BASIS_SCF
    atoms 1-3 entry S          line   730 file /apps/gb/PSI4/1.4.0/share/psi4/basis/aug-cc-pvtz-jkfit.gbs 

  ==> Pre-Iterations <==

   -------------------------------------------------------
    Irrep   Nso     Nmo     Nalpha   Nbeta   Ndocc  Nsocc
   -------------------------------------------------------
     A'        99      99       0       0       0       0
     A"        51      51       0       0       0       0
   -------------------------------------------------------
    Total     150     150      24      24      24       0
   -------------------------------------------------------

  ==> Integral Setup <==

  ==> DiskDFJK: Density-Fitted J/K Matrices <==

    J tasked:                  Yes
    K tasked:                  Yes
    wK tasked:                 Yes
    Omega:               3.000E-01
    OpenMP threads:              1
    Integrals threads:           1
    Memory [MiB]:             5488
    Algorithm:                Core
    Integral Cache:           NONE
    Schwarz Cutoff:          1E-12
    Fitting Condition:       1E-10

   => Auxiliary Basis Set <=

  Basis Set: (AUG-CC-PVTZ AUX)
    Blend: AUG-CC-PVTZ-JKFIT
    Number of shells: 126
    Number of basis function: 438
    Number of Cartesian functions: 540
    Spherical Harmonics?: true
    Max angular momentum: 4

  Cached 100.0% of DFT collocation blocks in 1.625 [GiB].

  Minimum eigenvalue in the overlap matrix is 2.2915518432E-04.
  Using Symmetric Orthogonalization.

  SCF Guess: Superposition of Atomic Densities via on-the-fly atomic UHF.

  ==> Iterations <==

                           Total Energy        Delta E     RMS |[F,P]|

   @DF-UKS iter SAD: -1194.00650497719971   -1.19401e+03   0.00000e+00 
   @DF-UKS iter   1: -1194.45080979571048   -4.44305e-01   3.60957e-03 DIIS
   @DF-UKS iter   2: -1194.41970093710279    3.11089e-02   3.98549e-03 DIIS
   @DF-UKS iter   3: -1194.52556308546286   -1.05862e-01   6.94743e-04 DIIS
   @DF-UKS iter   4: -1194.52836795884332   -2.80487e-03   2.78233e-04 DIIS
   @DF-UKS iter   5: -1194.52898614783589   -6.18189e-04   9.07220e-05 DIIS
   @DF-UKS iter   6: -1194.52908777455650   -1.01627e-04   1.50759e-05 DIIS
   @DF-UKS iter   7: -1194.52909570261181   -7.92806e-06   5.61361e-06 DIIS
   @DF-UKS iter   8: -1194.52909727840870   -1.57580e-06   2.26563e-06 DIIS
   @DF-UKS iter   9: -1194.52909751624475   -2.37836e-07   6.98399e-07 DIIS
   @DF-UKS iter  10: -1194.52909754137090   -2.51262e-08   4.25518e-07 DIIS
   @DF-UKS iter  11: -1194.52909754752568   -6.15478e-09   2.06491e-07 DIIS
   @DF-UKS iter  12: -1194.52909754931557   -1.78989e-09   6.47585e-08 DIIS
   @DF-UKS iter  13: -1194.52909754954817   -2.32603e-10   2.66106e-08 DIIS
   @DF-UKS iter  14: -1194.52909754957727   -2.91038e-11   1.00499e-08 DIIS
   @DF-UKS iter  15: -1194.52909754958091   -3.63798e-12   2.75511e-09 DIIS
  Energy and wave function converged.


  ==> Post-Iterations <==

   @Spin Contamination Metric:   7.105427358E-15
   @S^2 Expected:                0.000000000E+00
   @S^2 Observed:                7.105427358E-15
   @S   Expected:                0.000000000E+00
   @S   Observed:                0.000000000E+00

    Orbital Energies [Eh]
    ---------------------

    Alpha Occupied:                                                       

       1Ap   -89.355194     2Ap   -89.256090     3Ap   -89.247685  
       4Ap    -8.255035     5Ap    -8.166013     6Ap    -8.156197  
       1App   -6.163771     7Ap    -6.163316     8Ap    -6.159565  
       9Ap    -6.076442     2App   -6.074080    10Ap    -6.067357  
      11Ap    -6.067292     3App   -6.063966    12Ap    -6.057413  
      13Ap    -0.976486    14Ap    -0.843361    15Ap    -0.720506  
      16Ap    -0.520960    17Ap    -0.496958     4App   -0.486114  
      18Ap    -0.363830    19Ap    -0.359405     5App   -0.355218  

    Alpha Virtual:                                                        

       6App   -0.112866    20Ap    -0.008965    21Ap     0.027877  
      22Ap     0.047783    23Ap     0.059346     7App    0.062522  
      24Ap     0.070809    25Ap     0.086391    26Ap     0.087320  
       8App    0.087653     9App    0.095478    27Ap     0.096241  
      28Ap     0.113074    29Ap     0.171160    10App    0.183316  
      30Ap     0.191875    11App    0.206230    31Ap     0.207202  
      32Ap     0.251662    33Ap     0.271000    34Ap     0.273074  
      12App    0.284068    13App    0.285309    35Ap     0.291841  
      14App    0.335533    36Ap     0.336808    37Ap     0.352388  
      38Ap     0.362831    15App    0.380591    39Ap     0.403897  
      16App    0.444521    40Ap     0.474540    17App    0.512351  
      41Ap     0.530385    42Ap     0.542284    18App    0.547034  
      43Ap     0.552216    44Ap     0.553173    19App    0.556242  
      45Ap     0.558439    20App    0.568428    46Ap     0.582449  
      47Ap     0.611936    21App    0.623510    48Ap     0.627497  
      49Ap     0.633410    22App    0.641704    50Ap     0.649905  
      51Ap     0.660210    23App    0.679385    52Ap     0.681128  
      53Ap     0.724734    24App    0.726140    25App    0.738803  
      54Ap     0.786929    26App    0.791463    55Ap     0.791874  
      27App    0.805323    56Ap     0.823856    57Ap     0.844793  
      58Ap     0.850167    59Ap     0.931152    28App    0.936505  
      29App    0.972687    60Ap     0.997715    30App    1.032475  
      61Ap     1.039362    31App    1.109374    62Ap     1.115979  
      63Ap     1.126765    64Ap     1.156087    65Ap     1.180768  
      32App    1.195490    33App    1.203425    66Ap     1.300895  
      67Ap     1.314219    68Ap     1.380149    69Ap     1.481205  
      70Ap     1.761178    34App    1.770788    35App    1.799109  
      71Ap     1.811973    36App    1.834798    72Ap     1.841609  
      37App    1.851817    73Ap     1.856747    74Ap     1.888383  
      38App    1.920062    75Ap     1.937486    76Ap     1.962627  
      77Ap     1.972315    39App    1.978442    78Ap     1.987171  
      40App    1.989593    41App    2.008941    79Ap     2.015449  
      42App    2.040959    80Ap     2.050768    43App    2.066180  
      81Ap     2.099923    82Ap     2.123207    44App    2.140125  
      83Ap     2.144495    45App    2.153192    84Ap     2.162229  
      46App    2.224221    85Ap     2.232526    47App    2.233734  
      86Ap     2.243973    87Ap     2.264663    48App    2.267730  
      49App    2.312880    88Ap     2.350511    89Ap     2.366211  
      90Ap     2.422637    91Ap     2.436734    92Ap     2.469691  
      50App    2.501075    93Ap     2.520517    51App    2.566048  
      94Ap     2.677810    95Ap     3.556576    96Ap     3.665608  
      97Ap     4.745938    98Ap     5.164551    99Ap     5.617533  

    Beta Occupied:                                                        

       1Ap   -89.355194     2Ap   -89.256090     3Ap   -89.247685  
       4Ap    -8.255035     5Ap    -8.166013     6Ap    -8.156197  
       1App   -6.163771     7Ap    -6.163316     8Ap    -6.159565  
       9Ap    -6.076442     2App   -6.074080    10Ap    -6.067357  
      11Ap    -6.067292     3App   -6.063966    12Ap    -6.057413  
      13Ap    -0.976486    14Ap    -0.843361    15Ap    -0.720506  
      16Ap    -0.520960    17Ap    -0.496958     4App   -0.486114  
      18Ap    -0.363830    19Ap    -0.359405     5App   -0.355218  

    Beta Virtual:                                                         

       6App   -0.112866    20Ap    -0.008965    21Ap     0.027877  
      22Ap     0.047783    23Ap     0.059346     7App    0.062522  
      24Ap     0.070809    25Ap     0.086391    26Ap     0.087320  
       8App    0.087653     9App    0.095478    27Ap     0.096241  
      28Ap     0.113074    29Ap     0.171160    10App    0.183316  
      30Ap     0.191875    11App    0.206230    31Ap     0.207202  
      32Ap     0.251662    33Ap     0.271000    34Ap     0.273074  
      12App    0.284068    13App    0.285309    35Ap     0.291841  
      14App    0.335533    36Ap     0.336808    37Ap     0.352388  
      38Ap     0.362831    15App    0.380591    39Ap     0.403897  
      16App    0.444521    40Ap     0.474540    17App    0.512351  
      41Ap     0.530385    42Ap     0.542284    18App    0.547034  
      43Ap     0.552216    44Ap     0.553173    19App    0.556242  
      45Ap     0.558439    20App    0.568428    46Ap     0.582449  
      47Ap     0.611936    21App    0.623510    48Ap     0.627497  
      49Ap     0.633410    22App    0.641704    50Ap     0.649905  
      51Ap     0.660210    23App    0.679385    52Ap     0.681128  
      53Ap     0.724734    24App    0.726140    25App    0.738803  
      54Ap     0.786929    26App    0.791463    55Ap     0.791874  
      27App    0.805323    56Ap     0.823856    57Ap     0.844793  
      58Ap     0.850167    59Ap     0.931152    28App    0.936505  
      29App    0.972687    60Ap     0.997715    30App    1.032475  
      61Ap     1.039362    31App    1.109374    62Ap     1.115979  
      63Ap     1.126765    64Ap     1.156087    65Ap     1.180768  
      32App    1.195490    33App    1.203425    66Ap     1.300895  
      67Ap     1.314219    68Ap     1.380149    69Ap     1.481205  
      70Ap     1.761178    34App    1.770788    35App    1.799109  
      71Ap     1.811973    36App    1.834798    72Ap     1.841609  
      37App    1.851817    73Ap     1.856747    74Ap     1.888383  
      38App    1.920062    75Ap     1.937486    76Ap     1.962627  
      77Ap     1.972315    39App    1.978442    78Ap     1.987171  
      40App    1.989593    41App    2.008941    79Ap     2.015449  
      42App    2.040959    80Ap     2.050768    43App    2.066180  
      81Ap     2.099923    82Ap     2.123207    44App    2.140125  
      83Ap     2.144495    45App    2.153192    84Ap     2.162229  
      46App    2.224221    85Ap     2.232526    47App    2.233734  
      86Ap     2.243973    87Ap     2.264663    48App    2.267730  
      49App    2.312880    88Ap     2.350511    89Ap     2.366211  
      90Ap     2.422637    91Ap     2.436734    92Ap     2.469691  
      50App    2.501075    93Ap     2.520517    51App    2.566048  
      94Ap     2.677810    95Ap     3.556576    96Ap     3.665608  
      97Ap     4.745938    98Ap     5.164551    99Ap     5.617533  

    Final Occupation by Irrep:
             Ap   App 
    DOCC [    19,    5 ]
    SOCC [     0,    0 ]

  @DF-UKS Final Energy: -1194.52909754958091

   => Energetics <=

    Nuclear Repulsion Energy =            170.3929396686404800
    One-Electron Energy =               -1987.8167818710028314
    Two-Electron Energy =                 682.0004898637334918
    DFT Exchange-Correlation Energy =     -59.3040921935006367
    Empirical Dispersion Energy =           0.0000000000000000
    VV10 Nonlocal Energy =                  0.1983469825484507
    Total Energy =                      -1194.5290975495809107

  UHF NO Occupations:
  HONO-2 :   17 Ap 2.0000000
  HONO-1 :   18 Ap 2.0000000
  HONO-0 :   19 Ap 2.0000000
  LUNO+0 :   20 Ap 0.0000000
  LUNO+1 :   21 Ap 0.0000000
  LUNO+2 :   22 Ap 0.0000000
  LUNO+3 :   23 Ap 0.0000000


Computation Completed


Properties will be evaluated at   0.000000,   0.000000,   0.000000 [a0]

Properties computed using the SCF density matrix

  Nuclear Dipole Moment: [e a0]
     X:     0.0000      Y:    -0.0000      Z:     0.0000

  Electronic Dipole Moment: [e a0]
     X:     0.3084      Y:    -0.0278      Z:     0.0000

  Dipole Moment: [e a0]
     X:     0.3084      Y:    -0.0278      Z:     0.0000     Total:     0.3097

  Dipole Moment: [D]
     X:     0.7839      Y:    -0.0707      Z:     0.0000     Total:     0.7871


*** tstop() called on c2-18.compute.lan at Tue Feb  2 14:49:02 2021
Module time:
	user time   =     295.11 seconds =       4.92 minutes
	system time =      60.33 seconds =       1.01 minutes
	total time  =        555 seconds =       9.25 minutes
Total time:
	user time   =     295.11 seconds =       4.92 minutes
	system time =      60.33 seconds =       1.01 minutes
	total time  =        555 seconds =       9.25 minutes

  //>>>>>>>>>>>>>>>>>>>>>>>>>>>>>>>>>>>//
  //    Loading displacement 2 of 7    //
  //<<<<<<<<<<<<<<<<<<<<<<<<<<<<<<<<<<<//

*** tstart() called on c2-18.compute.lan
*** at Tue Feb  2 14:49:02 2021

   => Loading Basis Set <=

    Name: AUG-CC-PVTZ
    Role: ORBITAL
    Keyword: BASIS
    atoms 1-3 entry S          line   906 file /apps/gb/PSI4/1.4.0/share/psi4/basis/aug-cc-pvtz.gbs 


         ---------------------------------------------------------
                                   SCF
               by Justin Turney, Rob Parrish, Andy Simmonett
                          and Daniel G. A. Smith
                              UKS Reference
                        1 Threads,   9536 MiB Core
         ---------------------------------------------------------

  ==> Geometry <==

    Molecular point group: cs
    Full point group: Cs

    Geometry (in Angstrom), charge = 0, multiplicity = 1:

       Center              X                  Y                   Z               Mass       
    ------------   -----------------  -----------------  -----------------  -----------------
         S            0.605839838422     0.316650793508     0.000000000000    31.972071174400
         S            0.606366824283    -1.683349206492     0.000000000000    31.972071174400
         S           -1.212206662705     1.366698412984     0.000000000000    31.972071174400

  Running in cs symmetry.

  Rotational constants: A =      0.75486  B =      0.08359  C =      0.07526 [cm^-1]
  Rotational constants: A =  22630.03950  B =   2506.05749  C =   2256.20469 [MHz]
  Nuclear repulsion =  170.408352754223131

  Charge       = 0
  Multiplicity = 1
  Electrons    = 48
  Nalpha       = 24
  Nbeta        = 24

  ==> Algorithm <==

  SCF Algorithm Type is DF.
  DIIS enabled.
  MOM disabled.
  Fractional occupation disabled.
  Guess Type is SAD.
  Energy threshold   = 1.00e-08
  Density threshold  = 1.00e-08
  Integral threshold = 0.00e+00

  ==> Primary Basis <==

  Basis Set: AUG-CC-PVTZ
    Blend: AUG-CC-PVTZ
    Number of shells: 48
    Number of basis function: 150
    Number of Cartesian functions: 177
    Spherical Harmonics?: true
    Max angular momentum: 3

  ==> DFT Potential <==

   => Composite Functional: WB97M-V <= 

    wB97M-V Hyb-GGA Exchange-Correlation Functional

    N. Mardirossian and M. Head-Gordon, J. Chem. Phys. 144, 214110 (2016)

    Deriv               =              1
    GGA                 =           TRUE
    Meta                =           TRUE

    Exchange Hybrid     =           TRUE
    MP2 Hybrid          =          FALSE

   => Exchange-Correlation Functionals <=

    1.0000   wB97M-V exchange-correlation functional

   => Exact (HF) Exchange <=

    0.8500            HF,LR [omega = 0.3000]
    0.1500               HF 

   => VV10 Non-Local Parameters <=

    VV10 B              =     6.0000E+00
    VV10 C              =     1.0000E-02

   => Molecular Quadrature <=

    Radial Scheme          =       TREUTLER
    Pruning Scheme         =           NONE
    Nuclear Scheme         =       TREUTLER

    BS radius alpha        =              1
    Pruning alpha          =              1
    Radial Points          =             99
    Spherical Points       =            590
    Total Points           =         169930
    Total Blocks           =           1395
    Max Points             =            256
    Max Functions          =            150
    Weights Tolerance      =       1.00E-15

   => Loading Basis Set <=

    Name: (AUG-CC-PVTZ AUX)
    Role: JKFIT
    Keyword: DF_BASIS_SCF
    atoms 1-3 entry S          line   730 file /apps/gb/PSI4/1.4.0/share/psi4/basis/aug-cc-pvtz-jkfit.gbs 

  ==> Pre-Iterations <==

   -------------------------------------------------------
    Irrep   Nso     Nmo     Nalpha   Nbeta   Ndocc  Nsocc
   -------------------------------------------------------
     A'        99      99       0       0       0       0
     A"        51      51       0       0       0       0
   -------------------------------------------------------
    Total     150     150      24      24      24       0
   -------------------------------------------------------

  ==> Integral Setup <==

  ==> DiskDFJK: Density-Fitted J/K Matrices <==

    J tasked:                  Yes
    K tasked:                  Yes
    wK tasked:                 Yes
    Omega:               3.000E-01
    OpenMP threads:              1
    Integrals threads:           1
    Memory [MiB]:             5488
    Algorithm:                Core
    Integral Cache:           NONE
    Schwarz Cutoff:          1E-12
    Fitting Condition:       1E-10

   => Auxiliary Basis Set <=

  Basis Set: (AUG-CC-PVTZ AUX)
    Blend: AUG-CC-PVTZ-JKFIT
    Number of shells: 126
    Number of basis function: 438
    Number of Cartesian functions: 540
    Spherical Harmonics?: true
    Max angular momentum: 4

  Cached 100.0% of DFT collocation blocks in 1.625 [GiB].

  Minimum eigenvalue in the overlap matrix is 2.2907929932E-04.
  Using Symmetric Orthogonalization.

  SCF Guess: Superposition of Atomic Densities via on-the-fly atomic UHF.

  ==> Iterations <==

                           Total Energy        Delta E     RMS |[F,P]|

   @DF-UKS iter SAD: -1194.00702522081406   -1.19401e+03   0.00000e+00 
   @DF-UKS iter   1: -1194.45093304965712   -4.43908e-01   3.60868e-03 DIIS
   @DF-UKS iter   2: -1194.42002299946444    3.09101e-02   3.98147e-03 DIIS
   @DF-UKS iter   3: -1194.52563473610189   -1.05612e-01   6.93670e-04 DIIS
   @DF-UKS iter   4: -1194.52843128970653   -2.79655e-03   2.77045e-04 DIIS
   @DF-UKS iter   5: -1194.52904382215866   -6.12532e-04   9.08732e-05 DIIS
   @DF-UKS iter   6: -1194.52914555546567   -1.01733e-04   1.50631e-05 DIIS
   @DF-UKS iter   7: -1194.52915345760243   -7.90214e-06   5.60414e-06 DIIS
   @DF-UKS iter   8: -1194.52915502808105   -1.57048e-06   2.26075e-06 DIIS
   @DF-UKS iter   9: -1194.52915526472771   -2.36647e-07   6.94559e-07 DIIS
   @DF-UKS iter  10: -1194.52915528955623   -2.48285e-08   4.22527e-07 DIIS
   @DF-UKS iter  11: -1194.52915529562233   -6.06610e-09   2.05263e-07 DIIS
   @DF-UKS iter  12: -1194.52915529738175   -1.75942e-09   6.46165e-08 DIIS
   @DF-UKS iter  13: -1194.52915529761185   -2.30102e-10   2.65176e-08 DIIS
   @DF-UKS iter  14: -1194.52915529764277   -3.09228e-11   1.00109e-08 DIIS
   @DF-UKS iter  15: -1194.52915529764823   -5.45697e-12   2.74638e-09 DIIS
  Energy and wave function converged.


  ==> Post-Iterations <==

   @Spin Contamination Metric:  -7.815970093E-14
   @S^2 Expected:                0.000000000E+00
   @S^2 Observed:               -7.815970093E-14
   @S   Expected:                0.000000000E+00
   @S   Observed:                0.000000000E+00

    Orbital Energies [Eh]
    ---------------------

    Alpha Occupied:                                                       

       1Ap   -89.355182     2Ap   -89.256057     3Ap   -89.247694  
       4Ap    -8.255025     5Ap    -8.165982     6Ap    -8.156213  
       1App   -6.163762     7Ap    -6.163306     8Ap    -6.159554  
       9Ap    -6.076411     2App   -6.074047    10Ap    -6.067325  
      11Ap    -6.067305     3App   -6.063983    12Ap    -6.057430  
      13Ap    -0.976524    14Ap    -0.843421    15Ap    -0.720469  
      16Ap    -0.520984    17Ap    -0.496971     4App   -0.486140  
      18Ap    -0.363834    19Ap    -0.359407     5App   -0.355244  

    Alpha Virtual:                                                        

       6App   -0.112829    20Ap    -0.008923    21Ap     0.027904  
      22Ap     0.047789    23Ap     0.059349     7App    0.062522  
      24Ap     0.070843    25Ap     0.086414    26Ap     0.087316  
       8App    0.087650     9App    0.095486    27Ap     0.096245  
      28Ap     0.113073    29Ap     0.171159    10App    0.183309  
      30Ap     0.191880    11App    0.206241    31Ap     0.207183  
      32Ap     0.251654    33Ap     0.271026    34Ap     0.273094  
      12App    0.284101    13App    0.285292    35Ap     0.291858  
      14App    0.335544    36Ap     0.336809    37Ap     0.352408  
      38Ap     0.362845    15App    0.380617    39Ap     0.403908  
      16App    0.444516    40Ap     0.474519    17App    0.512324  
      41Ap     0.530403    42Ap     0.542278    18App    0.547036  
      43Ap     0.552191    44Ap     0.553183    19App    0.556284  
      45Ap     0.558444    20App    0.568447    46Ap     0.582426  
      47Ap     0.611967    21App    0.623522    48Ap     0.627502  
      49Ap     0.633408    22App    0.641670    50Ap     0.649900  
      51Ap     0.660231    23App    0.679391    52Ap     0.681171  
      53Ap     0.724744    24App    0.726133    25App    0.738871  
      54Ap     0.786947    26App    0.791450    55Ap     0.791893  
      27App    0.805382    56Ap     0.824011    57Ap     0.844839  
      58Ap     0.850176    59Ap     0.931193    28App    0.936478  
      29App    0.972746    60Ap     0.997770    30App    1.032571  
      61Ap     1.039462    31App    1.109416    62Ap     1.116003  
      63Ap     1.126828    64Ap     1.156172    65Ap     1.180782  
      32App    1.195541    33App    1.203522    66Ap     1.301038  
      67Ap     1.314327    68Ap     1.380191    69Ap     1.481249  
      70Ap     1.761161    34App    1.770792    35App    1.799147  
      71Ap     1.811965    36App    1.834812    72Ap     1.841656  
      37App    1.851827    73Ap     1.856811    74Ap     1.888287  
      38App    1.920066    75Ap     1.937543    76Ap     1.962594  
      77Ap     1.972300    39App    1.978409    78Ap     1.987106  
      40App    1.989580    41App    2.008939    79Ap     2.015368  
      42App    2.040921    80Ap     2.050738    43App    2.066180  
      81Ap     2.099867    82Ap     2.123230    44App    2.140153  
      83Ap     2.144487    45App    2.153183    84Ap     2.162204  
      46App    2.224211    85Ap     2.232576    47App    2.233923  
      86Ap     2.244073    87Ap     2.264771    48App    2.267746  
      49App    2.313003    88Ap     2.350631    89Ap     2.366738  
      90Ap     2.422743    91Ap     2.436820    92Ap     2.469760  
      50App    2.501377    93Ap     2.520561    51App    2.566082  
      94Ap     2.678081    95Ap     3.557172    96Ap     3.665717  
      97Ap     4.746703    98Ap     5.164676    99Ap     5.617436  

    Beta Occupied:                                                        

       1Ap   -89.355182     2Ap   -89.256057     3Ap   -89.247694  
       4Ap    -8.255025     5Ap    -8.165982     6Ap    -8.156213  
       1App   -6.163762     7Ap    -6.163306     8Ap    -6.159554  
       9Ap    -6.076411     2App   -6.074047    10Ap    -6.067325  
      11Ap    -6.067305     3App   -6.063983    12Ap    -6.057430  
      13Ap    -0.976524    14Ap    -0.843421    15Ap    -0.720469  
      16Ap    -0.520984    17Ap    -0.496971     4App   -0.486140  
      18Ap    -0.363834    19Ap    -0.359407     5App   -0.355244  

    Beta Virtual:                                                         

       6App   -0.112829    20Ap    -0.008923    21Ap     0.027904  
      22Ap     0.047789    23Ap     0.059349     7App    0.062522  
      24Ap     0.070843    25Ap     0.086414    26Ap     0.087316  
       8App    0.087650     9App    0.095486    27Ap     0.096245  
      28Ap     0.113073    29Ap     0.171159    10App    0.183309  
      30Ap     0.191880    11App    0.206241    31Ap     0.207183  
      32Ap     0.251654    33Ap     0.271026    34Ap     0.273094  
      12App    0.284101    13App    0.285292    35Ap     0.291858  
      14App    0.335544    36Ap     0.336809    37Ap     0.352408  
      38Ap     0.362845    15App    0.380617    39Ap     0.403908  
      16App    0.444516    40Ap     0.474519    17App    0.512324  
      41Ap     0.530403    42Ap     0.542278    18App    0.547036  
      43Ap     0.552191    44Ap     0.553183    19App    0.556284  
      45Ap     0.558444    20App    0.568447    46Ap     0.582426  
      47Ap     0.611967    21App    0.623522    48Ap     0.627502  
      49Ap     0.633408    22App    0.641670    50Ap     0.649900  
      51Ap     0.660231    23App    0.679391    52Ap     0.681171  
      53Ap     0.724744    24App    0.726133    25App    0.738871  
      54Ap     0.786947    26App    0.791450    55Ap     0.791893  
      27App    0.805382    56Ap     0.824011    57Ap     0.844839  
      58Ap     0.850176    59Ap     0.931193    28App    0.936478  
      29App    0.972746    60Ap     0.997770    30App    1.032571  
      61Ap     1.039462    31App    1.109416    62Ap     1.116003  
      63Ap     1.126828    64Ap     1.156172    65Ap     1.180782  
      32App    1.195541    33App    1.203522    66Ap     1.301038  
      67Ap     1.314327    68Ap     1.380191    69Ap     1.481249  
      70Ap     1.761161    34App    1.770792    35App    1.799147  
      71Ap     1.811965    36App    1.834812    72Ap     1.841656  
      37App    1.851827    73Ap     1.856811    74Ap     1.888287  
      38App    1.920066    75Ap     1.937543    76Ap     1.962594  
      77Ap     1.972300    39App    1.978409    78Ap     1.987106  
      40App    1.989580    41App    2.008939    79Ap     2.015368  
      42App    2.040921    80Ap     2.050738    43App    2.066180  
      81Ap     2.099867    82Ap     2.123230    44App    2.140153  
      83Ap     2.144487    45App    2.153183    84Ap     2.162204  
      46App    2.224211    85Ap     2.232576    47App    2.233923  
      86Ap     2.244073    87Ap     2.264771    48App    2.267746  
      49App    2.313003    88Ap     2.350631    89Ap     2.366738  
      90Ap     2.422743    91Ap     2.436820    92Ap     2.469760  
      50App    2.501377    93Ap     2.520561    51App    2.566082  
      94Ap     2.678081    95Ap     3.557172    96Ap     3.665717  
      97Ap     4.746703    98Ap     5.164676    99Ap     5.617436  

    Final Occupation by Irrep:
             Ap   App 
    DOCC [    19,    5 ]
    SOCC [     0,    0 ]

  @DF-UKS Final Energy: -1194.52915529764823

   => Energetics <=

    Nuclear Repulsion Energy =            170.4083527542231309
    One-Electron Energy =               -1987.8476216174005913
    Two-Electron Energy =                 682.0159804397093239
    DFT Exchange-Correlation Energy =     -59.3042132890755127
    Empirical Dispersion Energy =           0.0000000000000000
    VV10 Nonlocal Energy =                  0.1983464148955387
    Total Energy =                      -1194.5291552976480034

  UHF NO Occupations:
  HONO-2 :   17 Ap 2.0000000
  HONO-1 :   18 Ap 2.0000000
  HONO-0 :   19 Ap 2.0000000
  LUNO+0 :   20 Ap 0.0000000
  LUNO+1 :   21 Ap 0.0000000
  LUNO+2 :   22 Ap 0.0000000
  LUNO+3 :   23 Ap 0.0000000


Computation Completed


Properties will be evaluated at   0.000000,   0.000000,   0.000000 [a0]

Properties computed using the SCF density matrix

  Nuclear Dipole Moment: [e a0]
     X:     0.0000      Y:     0.0000      Z:     0.0000

  Electronic Dipole Moment: [e a0]
     X:     0.3078      Y:    -0.0272      Z:     0.0000

  Dipole Moment: [e a0]
     X:     0.3078      Y:    -0.0272      Z:     0.0000     Total:     0.3090

  Dipole Moment: [D]
     X:     0.7824      Y:    -0.0691      Z:     0.0000     Total:     0.7854


*** tstop() called on c2-18.compute.lan at Tue Feb  2 14:56:15 2021
Module time:
	user time   =     298.40 seconds =       4.97 minutes
	system time =       1.56 seconds =       0.03 minutes
	total time  =        433 seconds =       7.22 minutes
Total time:
	user time   =     593.52 seconds =       9.89 minutes
	system time =      61.89 seconds =       1.03 minutes
	total time  =        988 seconds =      16.47 minutes

  //>>>>>>>>>>>>>>>>>>>>>>>>>>>>>>>>>>>//
  //    Loading displacement 3 of 7    //
  //<<<<<<<<<<<<<<<<<<<<<<<<<<<<<<<<<<<//

*** tstart() called on c2-18.compute.lan
*** at Tue Feb  2 14:56:15 2021

   => Loading Basis Set <=

    Name: AUG-CC-PVTZ
    Role: ORBITAL
    Keyword: BASIS
    atoms 1-3 entry S          line   906 file /apps/gb/PSI4/1.4.0/share/psi4/basis/aug-cc-pvtz.gbs 


         ---------------------------------------------------------
                                   SCF
               by Justin Turney, Rob Parrish, Andy Simmonett
                          and Daniel G. A. Smith
                              UKS Reference
                        1 Threads,   9536 MiB Core
         ---------------------------------------------------------

  ==> Geometry <==

    Molecular point group: cs
    Full point group: Cs

    Geometry (in Angstrom), charge = 0, multiplicity = 1:

       Center              X                  Y                   Z               Mass       
    ------------   -----------------  -----------------  -----------------  -----------------
         S            0.606595726876     0.316682539825     0.000000000000    31.972071174400
         S            0.606068741015    -1.683317460175     0.000000000000    31.972071174400
         S           -1.212664467891     1.366634920350     0.000000000000    31.972071174400

  Running in cs symmetry.

  Rotational constants: A =      0.75340  B =      0.08359  C =      0.07524 [cm^-1]
  Rotational constants: A =  22586.29300  B =   2506.03684  C =   2255.75236 [MHz]
  Nuclear repulsion =  170.377527481310580

  Charge       = 0
  Multiplicity = 1
  Electrons    = 48
  Nalpha       = 24
  Nbeta        = 24

  ==> Algorithm <==

  SCF Algorithm Type is DF.
  DIIS enabled.
  MOM disabled.
  Fractional occupation disabled.
  Guess Type is SAD.
  Energy threshold   = 1.00e-08
  Density threshold  = 1.00e-08
  Integral threshold = 0.00e+00

  ==> Primary Basis <==

  Basis Set: AUG-CC-PVTZ
    Blend: AUG-CC-PVTZ
    Number of shells: 48
    Number of basis function: 150
    Number of Cartesian functions: 177
    Spherical Harmonics?: true
    Max angular momentum: 3

  ==> DFT Potential <==

   => Composite Functional: WB97M-V <= 

    wB97M-V Hyb-GGA Exchange-Correlation Functional

    N. Mardirossian and M. Head-Gordon, J. Chem. Phys. 144, 214110 (2016)

    Deriv               =              1
    GGA                 =           TRUE
    Meta                =           TRUE

    Exchange Hybrid     =           TRUE
    MP2 Hybrid          =          FALSE

   => Exchange-Correlation Functionals <=

    1.0000   wB97M-V exchange-correlation functional

   => Exact (HF) Exchange <=

    0.8500            HF,LR [omega = 0.3000]
    0.1500               HF 

   => VV10 Non-Local Parameters <=

    VV10 B              =     6.0000E+00
    VV10 C              =     1.0000E-02

   => Molecular Quadrature <=

    Radial Scheme          =       TREUTLER
    Pruning Scheme         =           NONE
    Nuclear Scheme         =       TREUTLER

    BS radius alpha        =              1
    Pruning alpha          =              1
    Radial Points          =             99
    Spherical Points       =            590
    Total Points           =         169928
    Total Blocks           =           1392
    Max Points             =            256
    Max Functions          =            150
    Weights Tolerance      =       1.00E-15

   => Loading Basis Set <=

    Name: (AUG-CC-PVTZ AUX)
    Role: JKFIT
    Keyword: DF_BASIS_SCF
    atoms 1-3 entry S          line   730 file /apps/gb/PSI4/1.4.0/share/psi4/basis/aug-cc-pvtz-jkfit.gbs 

  ==> Pre-Iterations <==

   -------------------------------------------------------
    Irrep   Nso     Nmo     Nalpha   Nbeta   Ndocc  Nsocc
   -------------------------------------------------------
     A'        99      99       0       0       0       0
     A"        51      51       0       0       0       0
   -------------------------------------------------------
    Total     150     150      24      24      24       0
   -------------------------------------------------------

  ==> Integral Setup <==

  ==> DiskDFJK: Density-Fitted J/K Matrices <==

    J tasked:                  Yes
    K tasked:                  Yes
    wK tasked:                 Yes
    Omega:               3.000E-01
    OpenMP threads:              1
    Integrals threads:           1
    Memory [MiB]:             5488
    Algorithm:                Core
    Integral Cache:           NONE
    Schwarz Cutoff:          1E-12
    Fitting Condition:       1E-10

   => Auxiliary Basis Set <=

  Basis Set: (AUG-CC-PVTZ AUX)
    Blend: AUG-CC-PVTZ-JKFIT
    Number of shells: 126
    Number of basis function: 438
    Number of Cartesian functions: 540
    Spherical Harmonics?: true
    Max angular momentum: 4

  Cached 100.0% of DFT collocation blocks in 1.625 [GiB].

  Minimum eigenvalue in the overlap matrix is 2.2923091700E-04.
  Using Symmetric Orthogonalization.

  SCF Guess: Superposition of Atomic Densities via on-the-fly atomic UHF.

  ==> Iterations <==

                           Total Energy        Delta E     RMS |[F,P]|

   @DF-UKS iter SAD: -1194.00598501560467   -1.19401e+03   0.00000e+00 
   @DF-UKS iter   1: -1194.45068622298686   -4.44701e-01   3.61046e-03 DIIS
   @DF-UKS iter   2: -1194.41937760701830    3.13086e-02   3.98953e-03 DIIS
   @DF-UKS iter   3: -1194.52549122089545   -1.06114e-01   6.95820e-04 DIIS
   @DF-UKS iter   4: -1194.52830447088650   -2.81325e-03   2.79418e-04 DIIS
   @DF-UKS iter   5: -1194.52892832617317   -6.23855e-04   9.05725e-05 DIIS
   @DF-UKS iter   6: -1194.52902984879915   -1.01523e-04   1.50887e-05 DIIS
   @DF-UKS iter   7: -1194.52903780291012   -7.95411e-06   5.62312e-06 DIIS
   @DF-UKS iter   8: -1194.52903938405461   -1.58114e-06   2.27054e-06 DIIS
   @DF-UKS iter   9: -1194.52903962310961   -2.39055e-07   7.02265e-07 DIIS
   @DF-UKS iter  10: -1194.52903964852476   -2.54151e-08   4.28521e-07 DIIS
   @DF-UKS iter  11: -1194.52903965477753   -6.25278e-09   2.07720e-07 DIIS
   @DF-UKS iter  12: -1194.52903965658857   -1.81103e-09   6.48994e-08 DIIS
   @DF-UKS iter  13: -1194.52903965682026   -2.31694e-10   2.67037e-08 DIIS
   @DF-UKS iter  14: -1194.52903965685209   -3.18323e-11   1.00888e-08 DIIS
   @DF-UKS iter  15: -1194.52903965685482   -2.72848e-12   2.76406e-09 DIIS
  Energy and wave function converged.


  ==> Post-Iterations <==

   @Spin Contamination Metric:  -4.618527782E-14
   @S^2 Expected:                0.000000000E+00
   @S^2 Observed:               -4.618527782E-14
   @S   Expected:                0.000000000E+00
   @S   Observed:                0.000000000E+00

    Orbital Energies [Eh]
    ---------------------

    Alpha Occupied:                                                       

       1Ap   -89.355206     2Ap   -89.256123     3Ap   -89.247677  
       4Ap    -8.255045     5Ap    -8.166045     6Ap    -8.156181  
       1App   -6.163781     7Ap    -6.163325     8Ap    -6.159576  
       9Ap    -6.076473     2App   -6.074112    10Ap    -6.067388  
      11Ap    -6.067279     3App   -6.063950    12Ap    -6.057396  
      13Ap    -0.976449    14Ap    -0.843300    15Ap    -0.720544  
      16Ap    -0.520936    17Ap    -0.496945     4App   -0.486088  
      18Ap    -0.363827    19Ap    -0.359403     5App   -0.355192  

    Alpha Virtual:                                                        

       6App   -0.112904    20Ap    -0.009008    21Ap     0.027850  
      22Ap     0.047778    23Ap     0.059343     7App    0.062522  
      24Ap     0.070775    25Ap     0.086367    26Ap     0.087324  
       8App    0.087657     9App    0.095471    27Ap     0.096237  
      28Ap     0.113076    29Ap     0.171162    10App    0.183323  
      30Ap     0.191870    11App    0.206220    31Ap     0.207221  
      32Ap     0.251671    33Ap     0.270974    34Ap     0.273055  
      12App    0.284034    13App    0.285326    35Ap     0.291823  
      14App    0.335522    36Ap     0.336808    37Ap     0.352367  
      38Ap     0.362817    15App    0.380564    39Ap     0.403886  
      16App    0.444527    40Ap     0.474561    17App    0.512378  
      41Ap     0.530368    42Ap     0.542290    18App    0.547033  
      43Ap     0.552240    44Ap     0.553163    19App    0.556200  
      45Ap     0.558434    20App    0.568409    46Ap     0.582472  
      47Ap     0.611904    21App    0.623497    48Ap     0.627492  
      49Ap     0.633411    22App    0.641737    50Ap     0.649910  
      51Ap     0.660188    23App    0.679378    52Ap     0.681086  
      53Ap     0.724724    24App    0.726147    25App    0.738736  
      54Ap     0.786912    26App    0.791477    55Ap     0.791855  
      27App    0.805264    56Ap     0.823701    57Ap     0.844748  
      58Ap     0.850158    59Ap     0.931110    28App    0.936532  
      29App    0.972628    60Ap     0.997659    30App    1.032379  
      61Ap     1.039263    31App    1.109331    62Ap     1.115955  
      63Ap     1.126701    64Ap     1.156002    65Ap     1.180754  
      32App    1.195439    33App    1.203327    66Ap     1.300752  
      67Ap     1.314110    68Ap     1.380107    69Ap     1.481161  
      70Ap     1.761195    34App    1.770785    35App    1.799071  
      71Ap     1.811981    36App    1.834784    72Ap     1.841561  
      37App    1.851808    73Ap     1.856683    74Ap     1.888478  
      38App    1.920058    75Ap     1.937429    76Ap     1.962660  
      77Ap     1.972330    39App    1.978474    78Ap     1.987237  
      40App    1.989605    41App    2.008943    79Ap     2.015530  
      42App    2.040996    80Ap     2.050798    43App    2.066179  
      81Ap     2.099979    82Ap     2.123183    44App    2.140098  
      83Ap     2.144503    45App    2.153201    84Ap     2.162253  
      46App    2.224231    85Ap     2.232476    47App    2.233545  
      86Ap     2.243872    87Ap     2.264554    48App    2.267715  
      49App    2.312758    88Ap     2.350391    89Ap     2.365686  
      90Ap     2.422531    91Ap     2.436649    92Ap     2.469622  
      50App    2.500774    93Ap     2.520474    51App    2.566014  
      94Ap     2.677539    95Ap     3.555977    96Ap     3.665501  
      97Ap     4.745173    98Ap     5.164427    99Ap     5.617630  

    Beta Occupied:                                                        

       1Ap   -89.355206     2Ap   -89.256123     3Ap   -89.247677  
       4Ap    -8.255045     5Ap    -8.166045     6Ap    -8.156181  
       1App   -6.163781     7Ap    -6.163325     8Ap    -6.159576  
       9Ap    -6.076473     2App   -6.074112    10Ap    -6.067388  
      11Ap    -6.067279     3App   -6.063950    12Ap    -6.057396  
      13Ap    -0.976449    14Ap    -0.843300    15Ap    -0.720544  
      16Ap    -0.520936    17Ap    -0.496945     4App   -0.486088  
      18Ap    -0.363827    19Ap    -0.359403     5App   -0.355192  

    Beta Virtual:                                                         

       6App   -0.112904    20Ap    -0.009008    21Ap     0.027850  
      22Ap     0.047778    23Ap     0.059343     7App    0.062522  
      24Ap     0.070775    25Ap     0.086367    26Ap     0.087324  
       8App    0.087657     9App    0.095471    27Ap     0.096237  
      28Ap     0.113076    29Ap     0.171162    10App    0.183323  
      30Ap     0.191870    11App    0.206220    31Ap     0.207221  
      32Ap     0.251671    33Ap     0.270974    34Ap     0.273055  
      12App    0.284034    13App    0.285326    35Ap     0.291823  
      14App    0.335522    36Ap     0.336808    37Ap     0.352367  
      38Ap     0.362817    15App    0.380564    39Ap     0.403886  
      16App    0.444527    40Ap     0.474561    17App    0.512378  
      41Ap     0.530368    42Ap     0.542290    18App    0.547033  
      43Ap     0.552240    44Ap     0.553163    19App    0.556200  
      45Ap     0.558434    20App    0.568409    46Ap     0.582472  
      47Ap     0.611904    21App    0.623497    48Ap     0.627492  
      49Ap     0.633411    22App    0.641737    50Ap     0.649910  
      51Ap     0.660188    23App    0.679378    52Ap     0.681086  
      53Ap     0.724724    24App    0.726147    25App    0.738736  
      54Ap     0.786912    26App    0.791477    55Ap     0.791855  
      27App    0.805264    56Ap     0.823701    57Ap     0.844748  
      58Ap     0.850158    59Ap     0.931110    28App    0.936532  
      29App    0.972628    60Ap     0.997659    30App    1.032379  
      61Ap     1.039263    31App    1.109331    62Ap     1.115955  
      63Ap     1.126701    64Ap     1.156002    65Ap     1.180754  
      32App    1.195439    33App    1.203327    66Ap     1.300752  
      67Ap     1.314110    68Ap     1.380107    69Ap     1.481161  
      70Ap     1.761195    34App    1.770785    35App    1.799071  
      71Ap     1.811981    36App    1.834784    72Ap     1.841561  
      37App    1.851808    73Ap     1.856683    74Ap     1.888478  
      38App    1.920058    75Ap     1.937429    76Ap     1.962660  
      77Ap     1.972330    39App    1.978474    78Ap     1.987237  
      40App    1.989605    41App    2.008943    79Ap     2.015530  
      42App    2.040996    80Ap     2.050798    43App    2.066179  
      81Ap     2.099979    82Ap     2.123183    44App    2.140098  
      83Ap     2.144503    45App    2.153201    84Ap     2.162253  
      46App    2.224231    85Ap     2.232476    47App    2.233545  
      86Ap     2.243872    87Ap     2.264554    48App    2.267715  
      49App    2.312758    88Ap     2.350391    89Ap     2.365686  
      90Ap     2.422531    91Ap     2.436649    92Ap     2.469622  
      50App    2.500774    93Ap     2.520474    51App    2.566014  
      94Ap     2.677539    95Ap     3.555977    96Ap     3.665501  
      97Ap     4.745173    98Ap     5.164427    99Ap     5.617630  

    Final Occupation by Irrep:
             Ap   App 
    DOCC [    19,    5 ]
    SOCC [     0,    0 ]

  @DF-UKS Final Energy: -1194.52903965685482

   => Energetics <=

    Nuclear Repulsion Energy =            170.3775274813105796
    One-Electron Energy =               -1987.7859438528087139
    Two-Electron Energy =                 681.9850003405355210
    DFT Exchange-Correlation Energy =     -59.3039711764476820
    Empirical Dispersion Energy =           0.0000000000000000
    VV10 Nonlocal Energy =                  0.1983475505556585
    Total Energy =                      -1194.5290396568545930

  UHF NO Occupations:
  HONO-2 :    5App 2.0000000
  HONO-1 :   18 Ap 2.0000000
  HONO-0 :   19 Ap 2.0000000
  LUNO+0 :   20 Ap 0.0000000
  LUNO+1 :   21 Ap 0.0000000
  LUNO+2 :   22 Ap 0.0000000
  LUNO+3 :   23 Ap 0.0000000


Computation Completed


Properties will be evaluated at   0.000000,   0.000000,   0.000000 [a0]

Properties computed using the SCF density matrix

  Nuclear Dipole Moment: [e a0]
     X:     0.0000      Y:    -0.0000      Z:     0.0000

  Electronic Dipole Moment: [e a0]
     X:     0.3090      Y:    -0.0285      Z:     0.0000

  Dipole Moment: [e a0]
     X:     0.3090      Y:    -0.0285      Z:     0.0000     Total:     0.3103

  Dipole Moment: [D]
     X:     0.7855      Y:    -0.0724      Z:     0.0000     Total:     0.7888


*** tstop() called on c2-18.compute.lan at Tue Feb  2 15:02:47 2021
Module time:
	user time   =     298.45 seconds =       4.97 minutes
	system time =       1.22 seconds =       0.02 minutes
	total time  =        392 seconds =       6.53 minutes
Total time:
	user time   =     891.98 seconds =      14.87 minutes
	system time =      63.11 seconds =       1.05 minutes
	total time  =       1380 seconds =      23.00 minutes

  //>>>>>>>>>>>>>>>>>>>>>>>>>>>>>>>>>>>//
  //    Loading displacement 4 of 7    //
  //<<<<<<<<<<<<<<<<<<<<<<<<<<<<<<<<<<<//

*** tstart() called on c2-18.compute.lan
*** at Tue Feb  2 15:02:47 2021

   => Loading Basis Set <=

    Name: AUG-CC-PVTZ
    Role: ORBITAL
    Keyword: BASIS
    atoms 1-3 entry S          line   906 file /apps/gb/PSI4/1.4.0/share/psi4/basis/aug-cc-pvtz.gbs 


         ---------------------------------------------------------
                                   SCF
               by Justin Turney, Rob Parrish, Andy Simmonett
                          and Daniel G. A. Smith
                              UKS Reference
                        1 Threads,   9536 MiB Core
         ---------------------------------------------------------

  ==> Geometry <==

    Molecular point group: cs
    Full point group: Cs

    Geometry (in Angstrom), charge = 0, multiplicity = 1:

       Center              X                  Y                   Z               Mass       
    ------------   -----------------  -----------------  -----------------  -----------------
         S            0.606217782649     0.316300280266     0.000000000000    31.972071174400
         S            0.606298365760    -1.683102090053     0.000000000000    31.972071174400
         S           -1.212516148409     1.366801809787     0.000000000000    31.972071174400

  Running in cs symmetry.

  Rotational constants: A =      0.75455  B =      0.08359  C =      0.07526 [cm^-1]
  Rotational constants: A =  22620.87925  B =   2506.02908  C =   2256.09058 [MHz]
  Nuclear repulsion =  170.403339179731688

  Charge       = 0
  Multiplicity = 1
  Electrons    = 48
  Nalpha       = 24
  Nbeta        = 24

  ==> Algorithm <==

  SCF Algorithm Type is DF.
  DIIS enabled.
  MOM disabled.
  Fractional occupation disabled.
  Guess Type is SAD.
  Energy threshold   = 1.00e-08
  Density threshold  = 1.00e-08
  Integral threshold = 0.00e+00

  ==> Primary Basis <==

  Basis Set: AUG-CC-PVTZ
    Blend: AUG-CC-PVTZ
    Number of shells: 48
    Number of basis function: 150
    Number of Cartesian functions: 177
    Spherical Harmonics?: true
    Max angular momentum: 3

  ==> DFT Potential <==

   => Composite Functional: WB97M-V <= 

    wB97M-V Hyb-GGA Exchange-Correlation Functional

    N. Mardirossian and M. Head-Gordon, J. Chem. Phys. 144, 214110 (2016)

    Deriv               =              1
    GGA                 =           TRUE
    Meta                =           TRUE

    Exchange Hybrid     =           TRUE
    MP2 Hybrid          =          FALSE

   => Exchange-Correlation Functionals <=

    1.0000   wB97M-V exchange-correlation functional

   => Exact (HF) Exchange <=

    0.8500            HF,LR [omega = 0.3000]
    0.1500               HF 

   => VV10 Non-Local Parameters <=

    VV10 B              =     6.0000E+00
    VV10 C              =     1.0000E-02

   => Molecular Quadrature <=

    Radial Scheme          =       TREUTLER
    Pruning Scheme         =           NONE
    Nuclear Scheme         =       TREUTLER

    BS radius alpha        =              1
    Pruning alpha          =              1
    Radial Points          =             99
    Spherical Points       =            590
    Total Points           =         169929
    Total Blocks           =           1388
    Max Points             =            256
    Max Functions          =            150
    Weights Tolerance      =       1.00E-15

   => Loading Basis Set <=

    Name: (AUG-CC-PVTZ AUX)
    Role: JKFIT
    Keyword: DF_BASIS_SCF
    atoms 1-3 entry S          line   730 file /apps/gb/PSI4/1.4.0/share/psi4/basis/aug-cc-pvtz-jkfit.gbs 

  ==> Pre-Iterations <==

   -------------------------------------------------------
    Irrep   Nso     Nmo     Nalpha   Nbeta   Ndocc  Nsocc
   -------------------------------------------------------
     A'        99      99       0       0       0       0
     A"        51      51       0       0       0       0
   -------------------------------------------------------
    Total     150     150      24      24      24       0
   -------------------------------------------------------

  ==> Integral Setup <==

  ==> DiskDFJK: Density-Fitted J/K Matrices <==

    J tasked:                  Yes
    K tasked:                  Yes
    wK tasked:                 Yes
    Omega:               3.000E-01
    OpenMP threads:              1
    Integrals threads:           1
    Memory [MiB]:             5488
    Algorithm:                Core
    Integral Cache:           NONE
    Schwarz Cutoff:          1E-12
    Fitting Condition:       1E-10

   => Auxiliary Basis Set <=

  Basis Set: (AUG-CC-PVTZ AUX)
    Blend: AUG-CC-PVTZ-JKFIT
    Number of shells: 126
    Number of basis function: 438
    Number of Cartesian functions: 540
    Spherical Harmonics?: true
    Max angular momentum: 4

  Cached 100.0% of DFT collocation blocks in 1.625 [GiB].

  Minimum eigenvalue in the overlap matrix is 2.2887036555E-04.
  Using Symmetric Orthogonalization.

  SCF Guess: Superposition of Atomic Densities via on-the-fly atomic UHF.

  ==> Iterations <==

                           Total Energy        Delta E     RMS |[F,P]|

   @DF-UKS iter SAD: -1194.00692596103227   -1.19401e+03   0.00000e+00 
   @DF-UKS iter   1: -1194.45078955369945   -4.43864e-01   3.60983e-03 DIIS
   @DF-UKS iter   2: -1194.41952866679048    3.12609e-02   3.98784e-03 DIIS
   @DF-UKS iter   3: -1194.52554716870236   -1.06019e-01   6.96585e-04 DIIS
   @DF-UKS iter   4: -1194.52836847808658   -2.82131e-03   2.79670e-04 DIIS
   @DF-UKS iter   5: -1194.52899346781055   -6.24990e-04   9.04499e-05 DIIS
   @DF-UKS iter   6: -1194.52909477791104   -1.01310e-04   1.50853e-05 DIIS
   @DF-UKS iter   7: -1194.52910271692645   -7.93902e-06   5.62183e-06 DIIS
   @DF-UKS iter   8: -1194.52910429782287   -1.58090e-06   2.27188e-06 DIIS
   @DF-UKS iter   9: -1194.52910453737968   -2.39557e-07   7.02681e-07 DIIS
   @DF-UKS iter  10: -1194.52910456284644   -2.54668e-08   4.28842e-07 DIIS
   @DF-UKS iter  11: -1194.52910456910331   -6.25687e-09   2.07935e-07 DIIS
   @DF-UKS iter  12: -1194.52910457091366   -1.81035e-09   6.48217e-08 DIIS
   @DF-UKS iter  13: -1194.52910457115104   -2.37378e-10   2.66699e-08 DIIS
   @DF-UKS iter  14: -1194.52910457117673   -2.56932e-11   1.00815e-08 DIIS
   @DF-UKS iter  15: -1194.52910457118378   -7.04858e-12   2.76328e-09 DIIS
  Energy and wave function converged.


  ==> Post-Iterations <==

   @Spin Contamination Metric:  -1.278976924E-13
   @S^2 Expected:                0.000000000E+00
   @S^2 Observed:               -1.278976924E-13
   @S   Expected:                0.000000000E+00
   @S   Observed:                0.000000000E+00

    Orbital Energies [Eh]
    ---------------------

    Alpha Occupied:                                                       

       1Ap   -89.355181     2Ap   -89.256118     3Ap   -89.247636  
       4Ap    -8.255027     5Ap    -8.166053     6Ap    -8.156145  
       1App   -6.163764     7Ap    -6.163308     8Ap    -6.159556  
       9Ap    -6.076477     2App   -6.074120    10Ap    -6.067397  
      11Ap    -6.067242     3App   -6.063913    12Ap    -6.057361  
      13Ap    -0.976563    14Ap    -0.843358    15Ap    -0.720483  
      16Ap    -0.520986    17Ap    -0.496982     4App   -0.486155  
      18Ap    -0.363841    19Ap    -0.359375     5App   -0.355217  

    Alpha Virtual:                                                        

       6App   -0.112841    20Ap    -0.008968    21Ap     0.027900  
      22Ap     0.047777    23Ap     0.059344     7App    0.062517  
      24Ap     0.070864    25Ap     0.086401    26Ap     0.087318  
       8App    0.087654     9App    0.095482    27Ap     0.096247  
      28Ap     0.113079    29Ap     0.171157    10App    0.183303  
      30Ap     0.191879    11App    0.206242    31Ap     0.207187  
      32Ap     0.251658    33Ap     0.270997    34Ap     0.273093  
      12App    0.284084    13App    0.285303    35Ap     0.291859  
      14App    0.335538    36Ap     0.336801    37Ap     0.352400  
      38Ap     0.362850    15App    0.380604    39Ap     0.403902  
      16App    0.444506    40Ap     0.474519    17App    0.512338  
      41Ap     0.530386    42Ap     0.542249    18App    0.547030  
      43Ap     0.552221    44Ap     0.553160    19App    0.556263  
      45Ap     0.558454    20App    0.568436    46Ap     0.582436  
      47Ap     0.611946    21App    0.623498    48Ap     0.627493  
      49Ap     0.633432    22App    0.641715    50Ap     0.649892  
      51Ap     0.660231    23App    0.679389    52Ap     0.681174  
      53Ap     0.724734    24App    0.726133    25App    0.738855  
      54Ap     0.786920    26App    0.791456    55Ap     0.791906  
      27App    0.805361    56Ap     0.823853    57Ap     0.844926  
      58Ap     0.850190    59Ap     0.931175    28App    0.936491  
      29App    0.972708    60Ap     0.997720    30App    1.032539  
      61Ap     1.039447    31App    1.109394    62Ap     1.115948  
      63Ap     1.126855    64Ap     1.156122    65Ap     1.180811  
      32App    1.195526    33App    1.203487    66Ap     1.300950  
      67Ap     1.314283    68Ap     1.380186    69Ap     1.481202  
      70Ap     1.761159    34App    1.770764    35App    1.799081  
      71Ap     1.811953    36App    1.834746    72Ap     1.841594  
      37App    1.851831    73Ap     1.856632    74Ap     1.888502  
      38App    1.920004    75Ap     1.937412    76Ap     1.962618  
      77Ap     1.972276    39App    1.978475    78Ap     1.987235  
      40App    1.989682    41App    2.008992    79Ap     2.015461  
      42App    2.040905    80Ap     2.050779    43App    2.066186  
      81Ap     2.099881    82Ap     2.123223    44App    2.140107  
      83Ap     2.144509    45App    2.153226    84Ap     2.162228  
      46App    2.224212    85Ap     2.232515    47App    2.233652  
      86Ap     2.243928    87Ap     2.264727    48App    2.267946  
      49App    2.313050    88Ap     2.350544    89Ap     2.365942  
      90Ap     2.422747    91Ap     2.436867    92Ap     2.469724  
      50App    2.500901    93Ap     2.521379    51App    2.566432  
      94Ap     2.678054    95Ap     3.556190    96Ap     3.665925  
      97Ap     4.746364    98Ap     5.164834    99Ap     5.617715  

    Beta Occupied:                                                        

       1Ap   -89.355181     2Ap   -89.256118     3Ap   -89.247636  
       4Ap    -8.255027     5Ap    -8.166053     6Ap    -8.156145  
       1App   -6.163764     7Ap    -6.163308     8Ap    -6.159556  
       9Ap    -6.076477     2App   -6.074120    10Ap    -6.067397  
      11Ap    -6.067242     3App   -6.063913    12Ap    -6.057361  
      13Ap    -0.976563    14Ap    -0.843358    15Ap    -0.720483  
      16Ap    -0.520986    17Ap    -0.496982     4App   -0.486155  
      18Ap    -0.363841    19Ap    -0.359375     5App   -0.355217  

    Beta Virtual:                                                         

       6App   -0.112841    20Ap    -0.008968    21Ap     0.027900  
      22Ap     0.047777    23Ap     0.059344     7App    0.062517  
      24Ap     0.070864    25Ap     0.086401    26Ap     0.087318  
       8App    0.087654     9App    0.095482    27Ap     0.096247  
      28Ap     0.113079    29Ap     0.171157    10App    0.183303  
      30Ap     0.191879    11App    0.206242    31Ap     0.207187  
      32Ap     0.251658    33Ap     0.270997    34Ap     0.273093  
      12App    0.284084    13App    0.285303    35Ap     0.291859  
      14App    0.335538    36Ap     0.336801    37Ap     0.352400  
      38Ap     0.362850    15App    0.380604    39Ap     0.403902  
      16App    0.444506    40Ap     0.474519    17App    0.512338  
      41Ap     0.530386    42Ap     0.542249    18App    0.547030  
      43Ap     0.552221    44Ap     0.553160    19App    0.556263  
      45Ap     0.558454    20App    0.568436    46Ap     0.582436  
      47Ap     0.611946    21App    0.623498    48Ap     0.627493  
      49Ap     0.633432    22App    0.641715    50Ap     0.649892  
      51Ap     0.660231    23App    0.679389    52Ap     0.681174  
      53Ap     0.724734    24App    0.726133    25App    0.738855  
      54Ap     0.786920    26App    0.791456    55Ap     0.791906  
      27App    0.805361    56Ap     0.823853    57Ap     0.844926  
      58Ap     0.850190    59Ap     0.931175    28App    0.936491  
      29App    0.972708    60Ap     0.997720    30App    1.032539  
      61Ap     1.039447    31App    1.109394    62Ap     1.115948  
      63Ap     1.126855    64Ap     1.156122    65Ap     1.180811  
      32App    1.195526    33App    1.203487    66Ap     1.300950  
      67Ap     1.314283    68Ap     1.380186    69Ap     1.481202  
      70Ap     1.761159    34App    1.770764    35App    1.799081  
      71Ap     1.811953    36App    1.834746    72Ap     1.841594  
      37App    1.851831    73Ap     1.856632    74Ap     1.888502  
      38App    1.920004    75Ap     1.937412    76Ap     1.962618  
      77Ap     1.972276    39App    1.978475    78Ap     1.987235  
      40App    1.989682    41App    2.008992    79Ap     2.015461  
      42App    2.040905    80Ap     2.050779    43App    2.066186  
      81Ap     2.099881    82Ap     2.123223    44App    2.140107  
      83Ap     2.144509    45App    2.153226    84Ap     2.162228  
      46App    2.224212    85Ap     2.232515    47App    2.233652  
      86Ap     2.243928    87Ap     2.264727    48App    2.267946  
      49App    2.313050    88Ap     2.350544    89Ap     2.365942  
      90Ap     2.422747    91Ap     2.436867    92Ap     2.469724  
      50App    2.500901    93Ap     2.521379    51App    2.566432  
      94Ap     2.678054    95Ap     3.556190    96Ap     3.665925  
      97Ap     4.746364    98Ap     5.164834    99Ap     5.617715  

    Final Occupation by Irrep:
             Ap   App 
    DOCC [    19,    5 ]
    SOCC [     0,    0 ]

  @DF-UKS Final Energy: -1194.52910457118378

   => Energetics <=

    Nuclear Repulsion Energy =            170.4033391797316881
    One-Electron Energy =               -1987.8375261729981958
    Two-Electron Energy =                 682.0109299472562725
    DFT Exchange-Correlation Energy =     -59.3041942315082053
    Empirical Dispersion Energy =           0.0000000000000000
    VV10 Nonlocal Energy =                  0.1983467063345240
    Total Energy =                      -1194.5291045711837796

  UHF NO Occupations:
  HONO-2 :   17 Ap 2.0000000
  HONO-1 :   18 Ap 2.0000000
  HONO-0 :   19 Ap 2.0000000
  LUNO+0 :   20 Ap 0.0000000
  LUNO+1 :   21 Ap 0.0000000
  LUNO+2 :   22 Ap 0.0000000
  LUNO+3 :   23 Ap 0.0000000


Computation Completed


Properties will be evaluated at   0.000000,   0.000000,   0.000000 [a0]

Properties computed using the SCF density matrix

  Nuclear Dipole Moment: [e a0]
     X:     0.0000      Y:    -0.0000      Z:     0.0000

  Electronic Dipole Moment: [e a0]
     X:     0.3092      Y:    -0.0293      Z:     0.0000

  Dipole Moment: [e a0]
     X:     0.3092      Y:    -0.0293      Z:     0.0000     Total:     0.3106

  Dipole Moment: [D]
     X:     0.7859      Y:    -0.0746      Z:     0.0000     Total:     0.7895


*** tstop() called on c2-18.compute.lan at Tue Feb  2 15:09:15 2021
Module time:
	user time   =     298.90 seconds =       4.98 minutes
	system time =       2.68 seconds =       0.04 minutes
	total time  =        388 seconds =       6.47 minutes
Total time:
	user time   =    1190.89 seconds =      19.85 minutes
	system time =      65.80 seconds =       1.10 minutes
	total time  =       1768 seconds =      29.47 minutes

  //>>>>>>>>>>>>>>>>>>>>>>>>>>>>>>>>>>>//
  //    Loading displacement 5 of 7    //
  //<<<<<<<<<<<<<<<<<<<<<<<<<<<<<<<<<<<//

*** tstart() called on c2-18.compute.lan
*** at Tue Feb  2 15:09:15 2021

   => Loading Basis Set <=

    Name: AUG-CC-PVTZ
    Role: ORBITAL
    Keyword: BASIS
    atoms 1-3 entry S          line   906 file /apps/gb/PSI4/1.4.0/share/psi4/basis/aug-cc-pvtz.gbs 


         ---------------------------------------------------------
                                   SCF
               by Justin Turney, Rob Parrish, Andy Simmonett
                          and Daniel G. A. Smith
                              UKS Reference
                        1 Threads,   9536 MiB Core
         ---------------------------------------------------------

  ==> Geometry <==

    Molecular point group: cs
    Full point group: Cs

    Geometry (in Angstrom), charge = 0, multiplicity = 1:

       Center              X                  Y                   Z               Mass       
    ------------   -----------------  -----------------  -----------------  -----------------
         S            0.606217782649     0.317033053067     0.000000000000    31.972071174400
         S            0.606137199538    -1.683564576614     0.000000000000    31.972071174400
         S           -1.212354982187     1.366531523547     0.000000000000    31.972071174400

  Running in cs symmetry.

  Rotational constants: A =      0.75370  B =      0.08359  C =      0.07525 [cm^-1]
  Rotational constants: A =  22595.43469  B =   2506.06514  C =   2255.86644 [MHz]
  Nuclear repulsion =  170.382552772002498

  Charge       = 0
  Multiplicity = 1
  Electrons    = 48
  Nalpha       = 24
  Nbeta        = 24

  ==> Algorithm <==

  SCF Algorithm Type is DF.
  DIIS enabled.
  MOM disabled.
  Fractional occupation disabled.
  Guess Type is SAD.
  Energy threshold   = 1.00e-08
  Density threshold  = 1.00e-08
  Integral threshold = 0.00e+00

  ==> Primary Basis <==

  Basis Set: AUG-CC-PVTZ
    Blend: AUG-CC-PVTZ
    Number of shells: 48
    Number of basis function: 150
    Number of Cartesian functions: 177
    Spherical Harmonics?: true
    Max angular momentum: 3

  ==> DFT Potential <==

   => Composite Functional: WB97M-V <= 

    wB97M-V Hyb-GGA Exchange-Correlation Functional

    N. Mardirossian and M. Head-Gordon, J. Chem. Phys. 144, 214110 (2016)

    Deriv               =              1
    GGA                 =           TRUE
    Meta                =           TRUE

    Exchange Hybrid     =           TRUE
    MP2 Hybrid          =          FALSE

   => Exchange-Correlation Functionals <=

    1.0000   wB97M-V exchange-correlation functional

   => Exact (HF) Exchange <=

    0.8500            HF,LR [omega = 0.3000]
    0.1500               HF 

   => VV10 Non-Local Parameters <=

    VV10 B              =     6.0000E+00
    VV10 C              =     1.0000E-02

   => Molecular Quadrature <=

    Radial Scheme          =       TREUTLER
    Pruning Scheme         =           NONE
    Nuclear Scheme         =       TREUTLER

    BS radius alpha        =              1
    Pruning alpha          =              1
    Radial Points          =             99
    Spherical Points       =            590
    Total Points           =         169934
    Total Blocks           =           1391
    Max Points             =            256
    Max Functions          =            150
    Weights Tolerance      =       1.00E-15

   => Loading Basis Set <=

    Name: (AUG-CC-PVTZ AUX)
    Role: JKFIT
    Keyword: DF_BASIS_SCF
    atoms 1-3 entry S          line   730 file /apps/gb/PSI4/1.4.0/share/psi4/basis/aug-cc-pvtz-jkfit.gbs 

  ==> Pre-Iterations <==

   -------------------------------------------------------
    Irrep   Nso     Nmo     Nalpha   Nbeta   Ndocc  Nsocc
   -------------------------------------------------------
     A'        99      99       0       0       0       0
     A"        51      51       0       0       0       0
   -------------------------------------------------------
    Total     150     150      24      24      24       0
   -------------------------------------------------------

  ==> Integral Setup <==

  ==> DiskDFJK: Density-Fitted J/K Matrices <==

    J tasked:                  Yes
    K tasked:                  Yes
    wK tasked:                 Yes
    Omega:               3.000E-01
    OpenMP threads:              1
    Integrals threads:           1
    Memory [MiB]:             5488
    Algorithm:                Core
    Integral Cache:           NONE
    Schwarz Cutoff:          1E-12
    Fitting Condition:       1E-10

   => Auxiliary Basis Set <=

  Basis Set: (AUG-CC-PVTZ AUX)
    Blend: AUG-CC-PVTZ-JKFIT
    Number of shells: 126
    Number of basis function: 438
    Number of Cartesian functions: 540
    Spherical Harmonics?: true
    Max angular momentum: 4

  Cached 100.0% of DFT collocation blocks in 1.625 [GiB].

  Minimum eigenvalue in the overlap matrix is 2.2943965318E-04.
  Using Symmetric Orthogonalization.

  SCF Guess: Superposition of Atomic Densities via on-the-fly atomic UHF.

  ==> Iterations <==

                           Total Energy        Delta E     RMS |[F,P]|

   @DF-UKS iter SAD: -1194.00608498421479   -1.19401e+03   0.00000e+00 
   @DF-UKS iter   1: -1194.45082933615299   -4.44744e-01   3.60931e-03 DIIS
   @DF-UKS iter   2: -1194.41987079406840    3.09585e-02   3.98317e-03 DIIS
   @DF-UKS iter   3: -1194.52557864319920   -1.05708e-01   6.92905e-04 DIIS
   @DF-UKS iter   4: -1194.52836722636835   -2.78858e-03   2.76780e-04 DIIS
   @DF-UKS iter   5: -1194.52897856424534   -6.11338e-04   9.09992e-05 DIIS
   @DF-UKS iter   6: -1194.52908051529403   -1.01951e-04   1.50665e-05 DIIS
   @DF-UKS iter   7: -1194.52908843255591   -7.91726e-06   5.60546e-06 DIIS
   @DF-UKS iter   8: -1194.52909000330055   -1.57074e-06   2.25942e-06 DIIS
   @DF-UKS iter   9: -1194.52909023945358   -2.36153e-07   6.94136e-07 DIIS
   @DF-UKS iter  10: -1194.52909026424254   -2.47890e-08   4.22195e-07 DIIS
   @DF-UKS iter  11: -1194.52909027030501   -6.06246e-09   2.05044e-07 DIIS
   @DF-UKS iter  12: -1194.52909027206442   -1.75942e-09   6.46932e-08 DIIS
   @DF-UKS iter  13: -1194.52909027229271   -2.28283e-10   2.65514e-08 DIIS
   @DF-UKS iter  14: -1194.52909027232272   -3.00133e-11   1.00181e-08 DIIS
   @DF-UKS iter  15: -1194.52909027232727   -4.54747e-12   2.74781e-09 DIIS
  Energy and wave function converged.


  ==> Post-Iterations <==

   @Spin Contamination Metric:   7.105427358E-14
   @S^2 Expected:                0.000000000E+00
   @S^2 Observed:                7.105427358E-14
   @S   Expected:                0.000000000E+00
   @S   Observed:                0.000000000E+00

    Orbital Energies [Eh]
    ---------------------

    Alpha Occupied:                                                       

       1Ap   -89.355207     2Ap   -89.256062     3Ap   -89.247735  
       4Ap    -8.255043     5Ap    -8.165974     6Ap    -8.156249  
       1App   -6.163779     7Ap    -6.163324     8Ap    -6.159574  
       9Ap    -6.076406     2App   -6.074039    10Ap    -6.067342  
      11Ap    -6.067316     3App   -6.064020    12Ap    -6.057465  
      13Ap    -0.976410    14Ap    -0.843363    15Ap    -0.720530  
      16Ap    -0.520934    17Ap    -0.496933     4App   -0.486073  
      18Ap    -0.363820    19Ap    -0.359435     5App   -0.355219  

    Alpha Virtual:                                                        

       6App   -0.112891    20Ap    -0.008963    21Ap     0.027854  
      22Ap     0.047789    23Ap     0.059348     7App    0.062526  
      24Ap     0.070754    25Ap     0.086380    26Ap     0.087322  
       8App    0.087653     9App    0.095475    27Ap     0.096235  
      28Ap     0.113070    29Ap     0.171164    10App    0.183329  
      30Ap     0.191871    11App    0.206219    31Ap     0.207216  
      32Ap     0.251667    33Ap     0.271004    34Ap     0.273056  
      12App    0.284051    13App    0.285315    35Ap     0.291823  
      14App    0.335528    36Ap     0.336815    37Ap     0.352376  
      38Ap     0.362811    15App    0.380577    39Ap     0.403892  
      16App    0.444537    40Ap     0.474560    17App    0.512364  
      41Ap     0.530385    42Ap     0.542318    18App    0.547039  
      43Ap     0.552210    44Ap     0.553187    19App    0.556222  
      45Ap     0.558423    20App    0.568420    46Ap     0.582462  
      47Ap     0.611926    21App    0.623521    48Ap     0.627500  
      49Ap     0.633387    22App    0.641692    50Ap     0.649919  
      51Ap     0.660188    23App    0.679380    52Ap     0.681082  
      53Ap     0.724734    24App    0.726148    25App    0.738752  
      54Ap     0.786939    26App    0.791471    55Ap     0.791843  
      27App    0.805284    56Ap     0.823859    57Ap     0.844660  
      58Ap     0.850144    59Ap     0.931128    28App    0.936518  
      29App    0.972666    60Ap     0.997709    30App    1.032412  
      61Ap     1.039278    31App    1.109354    62Ap     1.116011  
      63Ap     1.126674    64Ap     1.156052    65Ap     1.180725  
      32App    1.195454    33App    1.203363    66Ap     1.300839  
      67Ap     1.314154    68Ap     1.380111    69Ap     1.481208  
      70Ap     1.761196    34App    1.770813    35App    1.799136  
      71Ap     1.811993    36App    1.834849    72Ap     1.841624  
      37App    1.851804    73Ap     1.856863    74Ap     1.888263  
      38App    1.920120    75Ap     1.937559    76Ap     1.962636  
      77Ap     1.972354    39App    1.978408    78Ap     1.987109  
      40App    1.989504    41App    2.008890    79Ap     2.015437  
      42App    2.041012    80Ap     2.050758    43App    2.066174  
      81Ap     2.099964    82Ap     2.123190    44App    2.140143  
      83Ap     2.144482    45App    2.153158    84Ap     2.162229  
      46App    2.224229    85Ap     2.232537    47App    2.233817  
      86Ap     2.244017    87Ap     2.264599    48App    2.267514  
      49App    2.312712    88Ap     2.350478    89Ap     2.366480  
      90Ap     2.422526    91Ap     2.436602    92Ap     2.469658  
      50App    2.501249    93Ap     2.519658    51App    2.565664  
      94Ap     2.677566    95Ap     3.556961    96Ap     3.665289  
      97Ap     4.745511    98Ap     5.164271    99Ap     5.617353  

    Beta Occupied:                                                        

       1Ap   -89.355207     2Ap   -89.256062     3Ap   -89.247735  
       4Ap    -8.255043     5Ap    -8.165974     6Ap    -8.156249  
       1App   -6.163779     7Ap    -6.163324     8Ap    -6.159574  
       9Ap    -6.076406     2App   -6.074039    10Ap    -6.067342  
      11Ap    -6.067316     3App   -6.064020    12Ap    -6.057465  
      13Ap    -0.976410    14Ap    -0.843363    15Ap    -0.720530  
      16Ap    -0.520934    17Ap    -0.496933     4App   -0.486073  
      18Ap    -0.363820    19Ap    -0.359435     5App   -0.355219  

    Beta Virtual:                                                         

       6App   -0.112891    20Ap    -0.008963    21Ap     0.027854  
      22Ap     0.047789    23Ap     0.059348     7App    0.062526  
      24Ap     0.070754    25Ap     0.086380    26Ap     0.087322  
       8App    0.087653     9App    0.095475    27Ap     0.096235  
      28Ap     0.113070    29Ap     0.171164    10App    0.183329  
      30Ap     0.191871    11App    0.206219    31Ap     0.207216  
      32Ap     0.251667    33Ap     0.271004    34Ap     0.273056  
      12App    0.284051    13App    0.285315    35Ap     0.291823  
      14App    0.335528    36Ap     0.336815    37Ap     0.352376  
      38Ap     0.362811    15App    0.380577    39Ap     0.403892  
      16App    0.444537    40Ap     0.474560    17App    0.512364  
      41Ap     0.530385    42Ap     0.542318    18App    0.547039  
      43Ap     0.552210    44Ap     0.553187    19App    0.556222  
      45Ap     0.558423    20App    0.568420    46Ap     0.582462  
      47Ap     0.611926    21App    0.623521    48Ap     0.627500  
      49Ap     0.633387    22App    0.641692    50Ap     0.649919  
      51Ap     0.660188    23App    0.679380    52Ap     0.681082  
      53Ap     0.724734    24App    0.726148    25App    0.738752  
      54Ap     0.786939    26App    0.791471    55Ap     0.791843  
      27App    0.805284    56Ap     0.823859    57Ap     0.844660  
      58Ap     0.850144    59Ap     0.931128    28App    0.936518  
      29App    0.972666    60Ap     0.997709    30App    1.032412  
      61Ap     1.039278    31App    1.109354    62Ap     1.116011  
      63Ap     1.126674    64Ap     1.156052    65Ap     1.180725  
      32App    1.195454    33App    1.203363    66Ap     1.300839  
      67Ap     1.314154    68Ap     1.380111    69Ap     1.481208  
      70Ap     1.761196    34App    1.770813    35App    1.799136  
      71Ap     1.811993    36App    1.834849    72Ap     1.841624  
      37App    1.851804    73Ap     1.856863    74Ap     1.888263  
      38App    1.920120    75Ap     1.937559    76Ap     1.962636  
      77Ap     1.972354    39App    1.978408    78Ap     1.987109  
      40App    1.989504    41App    2.008890    79Ap     2.015437  
      42App    2.041012    80Ap     2.050758    43App    2.066174  
      81Ap     2.099964    82Ap     2.123190    44App    2.140143  
      83Ap     2.144482    45App    2.153158    84Ap     2.162229  
      46App    2.224229    85Ap     2.232537    47App    2.233817  
      86Ap     2.244017    87Ap     2.264599    48App    2.267514  
      49App    2.312712    88Ap     2.350478    89Ap     2.366480  
      90Ap     2.422526    91Ap     2.436602    92Ap     2.469658  
      50App    2.501249    93Ap     2.519658    51App    2.565664  
      94Ap     2.677566    95Ap     3.556961    96Ap     3.665289  
      97Ap     4.745511    98Ap     5.164271    99Ap     5.617353  

    Final Occupation by Irrep:
             Ap   App 
    DOCC [    19,    5 ]
    SOCC [     0,    0 ]

  @DF-UKS Final Energy: -1194.52909027232727

   => Energetics <=

    Nuclear Repulsion Energy =            170.3825527720024979
    One-Electron Energy =               -1987.7960622801851969
    Two-Electron Energy =                 681.9900623998171341
    DFT Exchange-Correlation Energy =     -59.3039904231157564
    Empirical Dispersion Energy =           0.0000000000000000
    VV10 Nonlocal Energy =                  0.1983472591539430
    Total Energy =                      -1194.5290902723272666

  UHF NO Occupations:
  HONO-2 :   17 Ap 2.0000000
  HONO-1 :   18 Ap 2.0000000
  HONO-0 :   19 Ap 2.0000000
  LUNO+0 :   20 Ap 0.0000000
  LUNO+1 :   21 Ap 0.0000000
  LUNO+2 :   22 Ap 0.0000000
  LUNO+3 :   23 Ap 0.0000000


Computation Completed


Properties will be evaluated at   0.000000,   0.000000,   0.000000 [a0]

Properties computed using the SCF density matrix

[...]
     A"        51      51       0       0       0       0
   -------------------------------------------------------
    Total     150     150      24      24      24       0
   -------------------------------------------------------

  ==> Integral Setup <==

  ==> DiskDFJK: Density-Fitted J/K Matrices <==

    J tasked:                  Yes
    K tasked:                  Yes
    wK tasked:                 Yes
    Omega:               3.000E-01
    OpenMP threads:              1
    Integrals threads:           1
    Memory [MiB]:             5465
    Algorithm:                Core
    Integral Cache:           NONE
    Schwarz Cutoff:          1E-12
    Fitting Condition:       1E-10

   => Auxiliary Basis Set <=

  Basis Set: (AUG-CC-PVTZ AUX)
    Blend: AUG-CC-PVTZ-JKFIT
    Number of shells: 126
    Number of basis function: 438
    Number of Cartesian functions: 540
    Spherical Harmonics?: true
    Max angular momentum: 4

  Cached 100.0% of DFT collocation blocks in 1.648 [GiB].

  Minimum eigenvalue in the overlap matrix is 1.7069530401E-04.
  Using Symmetric Orthogonalization.

  SCF Guess: Superposition of Atomic Densities via on-the-fly atomic UHF.

  ==> Iterations <==

                           Total Energy        Delta E     RMS |[F,P]|

   @DF-UKS iter SAD: -1194.39202056067825   -1.19439e+03   0.00000e+00 
   @DF-UKS iter   1: -1194.48385742405935   -9.18369e-02   3.45597e-03 DIIS
   @DF-UKS iter   2: -1194.49053656100000   -6.67914e-03   3.07951e-03 DIIS
   @DF-UKS iter   3: -1194.54744256550930   -5.69060e-02   5.56716e-04 DIIS
   @DF-UKS iter   4: -1194.54930195224370   -1.85939e-03   6.86945e-05 DIIS
   @DF-UKS iter   5: -1194.54937953620947   -7.75840e-05   1.96195e-05 DIIS
   @DF-UKS iter   6: -1194.54938531482549   -5.77862e-06   5.80947e-06 DIIS
   @DF-UKS iter   7: -1194.54938622114469   -9.06319e-07   3.22046e-06 DIIS
   @DF-UKS iter   8: -1194.54938635908184   -1.37937e-07   1.72596e-06 DIIS
   @DF-UKS iter   9: -1194.54938640209684   -4.30150e-08   4.72066e-07 DIIS
   @DF-UKS iter  10: -1194.54938640618866   -4.09182e-09   9.26883e-08 DIIS
   @DF-UKS iter  11: -1194.54938640650789   -3.19233e-10   2.37428e-08 DIIS
   @DF-UKS iter  12: -1194.54938640652426   -1.63709e-11   6.38577e-09 DIIS
   @DF-UKS iter  13: -1194.54938640652563   -1.36424e-12   1.27465e-09 DIIS
   @DF-UKS iter  14: -1194.54938640651994    5.68434e-12   2.72145e-10 DIIS
   @DF-UKS iter  15: -1194.54938640652472   -4.77485e-12   1.33828e-10 DIIS
   @DF-UKS iter  16: -1194.54938640652222    2.50111e-12   2.55717e-11 DIIS
  Energy and wave function converged.


  ==> Post-Iterations <==

   @Spin Contamination Metric:  -2.486899575E-14
   @S^2 Expected:                0.000000000E+00
   @S^2 Observed:               -2.486899575E-14
   @S   Expected:                0.000000000E+00
   @S   Observed:                0.000000000E+00

    Orbital Energies [Eh]
    ---------------------

    Alpha Occupied:                                                       

       1Ap   -89.345714     2Ap   -89.237026     3Ap   -89.236951  
       4Ap    -8.249020     5Ap    -8.150317     6Ap    -8.150218  
       1App   -6.157887     7Ap    -6.157227     8Ap    -6.153009  
       9Ap    -6.060324    10Ap    -6.060231     2App   -6.058106  
       3App   -6.058006    11Ap    -6.051791    12Ap    -6.051693  
      13Ap    -1.014587    14Ap    -0.864208    15Ap    -0.700781  
      16Ap    -0.529681    17Ap    -0.515958     4App   -0.508701  
       5App   -0.362208    18Ap    -0.359449    19Ap    -0.359359  

    Alpha Virtual:                                                        

       6App   -0.090056    20Ap     0.025793    21Ap     0.035272  
      22Ap     0.049790     7App    0.061264    23Ap     0.063585  
      24Ap     0.079868     8App    0.087281    25Ap     0.089944  
       9App    0.094653    26Ap     0.094892    27Ap     0.100434  
      28Ap     0.123711    29Ap     0.172248    10App    0.185192  
      30Ap     0.193866    11App    0.210154    31Ap     0.213246  
      32Ap     0.256238    33Ap     0.273314    34Ap     0.275211  
      35Ap     0.284385    12App    0.287449    13App    0.297769  
      14App    0.337589    36Ap     0.350449    37Ap     0.353925  
      15App    0.382281    38Ap     0.386334    39Ap     0.407483  
      16App    0.440348    40Ap     0.477609    17App    0.507092  
      41Ap     0.524575    42Ap     0.535872    43Ap     0.541327  
      18App    0.541782    44Ap     0.549021    19App    0.559681  
      20App    0.560686    45Ap     0.562660    46Ap     0.576801  
      47Ap     0.602509    21App    0.624268    48Ap     0.635046  
      49Ap     0.638781    22App    0.643556    50Ap     0.665695  
      51Ap     0.681097    52Ap     0.700987    23App    0.709858  
      24App    0.741119    53Ap     0.756210    25App    0.763764  
      26App    0.809225    54Ap     0.809382    55Ap     0.811969  
      27App    0.818846    56Ap     0.858473    57Ap     0.896736  
      58Ap     0.898674    59Ap     0.988366    28App    0.994098  
      29App    1.001799    60Ap     1.033697    30App    1.057132  
      61Ap     1.064329    31App    1.133965    62Ap     1.145912  
      63Ap     1.173800    64Ap     1.183590    32App    1.211531  
      33App    1.224693    65Ap     1.228885    66Ap     1.315619  
      67Ap     1.344511    68Ap     1.420356    69Ap     1.469673  
      70Ap     1.762079    34App    1.764288    35App    1.794041  
      71Ap     1.808169    72Ap     1.836329    36App    1.837265  
      37App    1.847980    73Ap     1.850081    74Ap     1.881042  
      38App    1.902125    75Ap     1.918740    76Ap     1.959500  
      77Ap     1.961859    39App    1.972777    78Ap     1.983789  
      40App    2.005044    79Ap     2.006215    41App    2.034897  
      80Ap     2.038656    42App    2.045253    43App    2.070731  
      81Ap     2.103203    82Ap     2.126570    44App    2.150740  
      45App    2.166608    83Ap     2.180012    84Ap     2.199340  
      46App    2.228295    85Ap     2.265533    86Ap     2.307141  
      47App    2.307812    48App    2.317818    87Ap     2.327714  
      49App    2.395536    88Ap     2.409950    89Ap     2.436031  
      90Ap     2.511113    91Ap     2.593107    50App    2.626666  
      51App    2.644524    92Ap     2.703287    93Ap     2.706315  
      94Ap     2.779682    95Ap     3.596075    96Ap     3.757640  
      97Ap     5.012478    98Ap     5.380034    99Ap     5.732212  

    Beta Occupied:                                                        

       1Ap   -89.345714     2Ap   -89.237026     3Ap   -89.236951  
       4Ap    -8.249020     5Ap    -8.150317     6Ap    -8.150218  
       1App   -6.157887     7Ap    -6.157227     8Ap    -6.153009  
       9Ap    -6.060324    10Ap    -6.060231     2App   -6.058106  
       3App   -6.058006    11Ap    -6.051791    12Ap    -6.051693  
      13Ap    -1.014587    14Ap    -0.864208    15Ap    -0.700781  
      16Ap    -0.529681    17Ap    -0.515958     4App   -0.508701  
       5App   -0.362208    18Ap    -0.359449    19Ap    -0.359359  

    Beta Virtual:                                                         

       6App   -0.090056    20Ap     0.025793    21Ap     0.035272  
      22Ap     0.049790     7App    0.061264    23Ap     0.063585  
      24Ap     0.079868     8App    0.087281    25Ap     0.089944  
       9App    0.094653    26Ap     0.094892    27Ap     0.100434  
      28Ap     0.123711    29Ap     0.172248    10App    0.185192  
      30Ap     0.193866    11App    0.210154    31Ap     0.213246  
      32Ap     0.256238    33Ap     0.273314    34Ap     0.275211  
      35Ap     0.284385    12App    0.287449    13App    0.297769  
      14App    0.337589    36Ap     0.350449    37Ap     0.353925  
      15App    0.382281    38Ap     0.386334    39Ap     0.407483  
      16App    0.440348    40Ap     0.477609    17App    0.507092  
      41Ap     0.524575    42Ap     0.535872    43Ap     0.541327  
      18App    0.541782    44Ap     0.549021    19App    0.559681  
      20App    0.560686    45Ap     0.562660    46Ap     0.576801  
      47Ap     0.602509    21App    0.624268    48Ap     0.635046  
      49Ap     0.638781    22App    0.643556    50Ap     0.665695  
      51Ap     0.681097    52Ap     0.700987    23App    0.709858  
      24App    0.741119    53Ap     0.756210    25App    0.763764  
      26App    0.809225    54Ap     0.809382    55Ap     0.811969  
      27App    0.818846    56Ap     0.858473    57Ap     0.896736  
      58Ap     0.898674    59Ap     0.988366    28App    0.994098  
      29App    1.001799    60Ap     1.033697    30App    1.057132  
      61Ap     1.064329    31App    1.133965    62Ap     1.145912  
      63Ap     1.173800    64Ap     1.183590    32App    1.211531  
      33App    1.224693    65Ap     1.228885    66Ap     1.315619  
      67Ap     1.344511    68Ap     1.420356    69Ap     1.469673  
      70Ap     1.762079    34App    1.764288    35App    1.794041  
      71Ap     1.808169    72Ap     1.836329    36App    1.837265  
      37App    1.847980    73Ap     1.850081    74Ap     1.881042  
      38App    1.902125    75Ap     1.918740    76Ap     1.959500  
      77Ap     1.961859    39App    1.972777    78Ap     1.983789  
      40App    2.005044    79Ap     2.006215    41App    2.034897  
      80Ap     2.038656    42App    2.045253    43App    2.070731  
      81Ap     2.103203    82Ap     2.126570    44App    2.150740  
      45App    2.166608    83Ap     2.180012    84Ap     2.199340  
      46App    2.228295    85Ap     2.265533    86Ap     2.307141  
      47App    2.307812    48App    2.317818    87Ap     2.327714  
      49App    2.395536    88Ap     2.409950    89Ap     2.436031  
      90Ap     2.511113    91Ap     2.593107    50App    2.626666  
      51App    2.644524    92Ap     2.703287    93Ap     2.706315  
      94Ap     2.779682    95Ap     3.596075    96Ap     3.757640  
      97Ap     5.012478    98Ap     5.380034    99Ap     5.732212  

    Final Occupation by Irrep:
             Ap   App 
    DOCC [    19,    5 ]
    SOCC [     0,    0 ]

  @DF-UKS Final Energy: -1194.54938640652222

   => Energetics <=

    Nuclear Repulsion Energy =            183.7055603301358815
    One-Electron Energy =               -2014.5474845038079366
    Two-Electron Energy =                 695.4924321653472816
    DFT Exchange-Correlation Energy =     -59.3976556818117345
    Empirical Dispersion Energy =           0.0000000000000000
    VV10 Nonlocal Energy =                  0.1977612836141629
    Total Energy =                      -1194.5493864065222169

  UHF NO Occupations:
  HONO-2 :   17 Ap 2.0000000
  HONO-1 :   18 Ap 2.0000000
  HONO-0 :   19 Ap 2.0000000
  LUNO+0 :    6App 0.0000000
  LUNO+1 :   20 Ap 0.0000000
  LUNO+2 :   21 Ap 0.0000000
  LUNO+3 :   22 Ap 0.0000000


Computation Completed


Properties will be evaluated at   0.000000,   0.000000,   0.000000 [a0]

Properties computed using the SCF density matrix

  Nuclear Dipole Moment: [e a0]
     X:     0.0000      Y:    -0.0000      Z:     0.0000

  Electronic Dipole Moment: [e a0]
     X:     0.1971      Y:     0.1191      Z:     0.0000

  Dipole Moment: [e a0]
     X:     0.1971      Y:     0.1191      Z:     0.0000     Total:     0.2303

  Dipole Moment: [D]
     X:     0.5011      Y:     0.3028      Z:     0.0000     Total:     0.5855


*** tstop() called on c2-18.compute.lan at Tue Feb  2 19:12:28 2021
Module time:
	user time   =     325.29 seconds =       5.42 minutes
	system time =       2.29 seconds =       0.04 minutes
	total time  =        327 seconds =       5.45 minutes
Total time:
	user time   =   15623.43 seconds =     260.39 minutes
	system time =     150.20 seconds =       2.50 minutes
	total time  =      16361 seconds =     272.68 minutes

         ----------------------------------------------------------
                                   FINDIF
                     R. A. King and Jonathon Misiewicz
         ---------------------------------------------------------

  Computing second-derivative from energies using projected, 
  symmetry-adapted, cartesian coordinates.

  13 energies passed in, including the reference geometry.
    Using 3-point formula.
    Energy without displacement: -1194.5493868104
    Check energies below for precision!
    0: -1        :     -1194.5493866529
    0: 1         :     -1194.5493866497
    1: -1        :     -1194.5493865870
    1: 1         :     -1194.5493865866
    2: -1        :     -1194.5493867111
    2: 1         :     -1194.5493867090
    0: 1, 1: 1   :     -1194.5493865391
    0: -1, 1: -1 :     -1194.5493865418
    0: 1, 2: 1   :     -1194.5493864143
    0: -1, 2: -1 :     -1194.5493864128
    1: 1, 2: 1   :     -1194.5493864057
    1: -1, 2: -1 :     -1194.5493864065

-------------------------------------------------------------


  ==> Harmonic Vibrational Analysis <==

  non-mass-weighted Hessian:       Symmetric? True   Hermitian? True   Lin Dep Dim?  6 (0)
  projection of translations (True) and rotations (True) removed 6 degrees of freedom (6)
  total projector:                 Symmetric? True   Hermitian? True   Lin Dep Dim?  6 (6)
  mass-weighted Hessian:           Symmetric? True   Hermitian? True   Lin Dep Dim?  6 (0)
  pre-proj  low-frequency mode:    0.0000i [cm^-1]
  pre-proj  low-frequency mode:    0.0000i [cm^-1]
  pre-proj  low-frequency mode:    0.0000  [cm^-1]
  pre-proj  low-frequency mode:    0.0000  [cm^-1]
  pre-proj  low-frequency mode:    0.0000  [cm^-1]
  pre-proj  low-frequency mode:    0.0000  [cm^-1]
  pre-proj  all modes:['0.0000i' '0.0000i' '0.0000' '0.0000' '0.0000' '0.0000' '262.6973'
 '640.4469' '735.9440']
  projected mass-weighted Hessian: Symmetric? True   Hermitian? True   Lin Dep Dim?  6 (6)
  post-proj low-frequency mode:    0.0000i [cm^-1] (TR)
  post-proj low-frequency mode:    0.0000  [cm^-1] (TR)
  post-proj low-frequency mode:    0.0000  [cm^-1] (TR)
  post-proj low-frequency mode:    0.0000  [cm^-1] (TR)
  post-proj low-frequency mode:    0.0000  [cm^-1] (TR)
  post-proj low-frequency mode:    0.0000  [cm^-1] (TR)
  post-proj  all modes:['0.0000i' '0.0000' '0.0000' '0.0000' '0.0000' '0.0000' '262.6973'
 '640.4469' '735.9440']

  Vibration                       7                   8                   9           
  Freq [cm^-1]                 262.6973            640.4469            735.9440       
  Irrep                           Ap                  Ap                  Ap          
  Reduced mass [u]             31.9721             31.9721             31.9721        
  Force const [mDyne/A]         1.3000              7.7266             10.2026        
  Turning point v=0 [a0]        0.1197              0.0767              0.0715        
  RMS dev v=0 [a0 u^1/2]        0.4787              0.3066              0.2860        
  Char temp [K]                377.9629            921.4605           1058.8596       
  ----------------------------------------------------------------------------------
      1   S               -0.45 -0.28  0.00   -0.53 -0.32  0.00   -0.40  0.66 -0.00   
      2   S                0.51 -0.32 -0.00    0.03  0.55 -0.00    0.00 -0.45 -0.00   
      3   S               -0.06  0.60 -0.00    0.51 -0.23 -0.00    0.40 -0.20 -0.00   

  ==> Thermochemistry Components <==

  Entropy, S
    Electronic S            0.000 [cal/(mol K)]        0.000 [J/(mol K)]       0.00000000 [mEh/K] (multiplicity = 1)
    Translational S        39.594 [cal/(mol K)]      165.660 [J/(mol K)]       0.06309659 [mEh/K] (mol. weight = 95.9162 [u], P = 101325.00 [Pa])
    Rotational S           24.947 [cal/(mol K)]      104.379 [J/(mol K)]       0.03975597 [mEh/K] (symmetry no. = 1)
    Vibrational S           2.295 [cal/(mol K)]        9.603 [J/(mol K)]       0.00365748 [mEh/K]
  Total S                  66.836 [cal/(mol K)]      279.642 [J/(mol K)]       0.10651003 [mEh/K]
  Correction S              0.000 [cal/(mol K)]        0.000 [J/(mol K)]       0.00000000 [mEh/K]

  Constant volume heat capacity, Cv
    Electronic Cv           0.000 [cal/(mol K)]        0.000 [J/(mol K)]       0.00000000 [mEh/K]
    Translational Cv        2.981 [cal/(mol K)]       12.472 [J/(mol K)]       0.00475022 [mEh/K]
    Rotational Cv           2.981 [cal/(mol K)]       12.472 [J/(mol K)]       0.00475022 [mEh/K]
    Vibrational Cv          3.451 [cal/(mol K)]       14.437 [J/(mol K)]       0.00549881 [mEh/K]
  Total Cv                  9.412 [cal/(mol K)]       39.381 [J/(mol K)]       0.01499925 [mEh/K]
  Correction Cv             0.000 [cal/(mol K)]        0.000 [J/(mol K)]       0.00000000 [mEh/K]

  Constant pressure heat capacity, Cp
    Electronic Cp           0.000 [cal/(mol K)]        0.000 [J/(mol K)]       0.00000000 [mEh/K]
    Translational Cp        4.968 [cal/(mol K)]       20.786 [J/(mol K)]       0.00791703 [mEh/K]
    Rotational Cp           2.981 [cal/(mol K)]       12.472 [J/(mol K)]       0.00475022 [mEh/K]
    Vibrational Cp          3.451 [cal/(mol K)]       14.437 [J/(mol K)]       0.00549881 [mEh/K]
  Total Cp                 11.399 [cal/(mol K)]       47.695 [J/(mol K)]       0.01816606 [mEh/K]
  Correction Cp             0.000 [cal/(mol K)]        0.000 [J/(mol K)]       0.00000000 [mEh/K]

  ==> Thermochemistry Energy Analysis <==

  Raw electronic energy, E0
  Total E0, Electronic energy at well bottom at 0 [K]                -1194.54938681 [Eh]

  Zero-point energy, ZPE_vib = Sum_i nu_i / 2
    Electronic ZPE          0.000 [kcal/mol]        0.000 [kJ/mol]       0.00000000 [Eh]
    Translational ZPE       0.000 [kcal/mol]        0.000 [kJ/mol]       0.00000000 [Eh]
    Rotational ZPE          0.000 [kcal/mol]        0.000 [kJ/mol]       0.00000000 [Eh]
    Vibrational ZPE         2.343 [kcal/mol]        9.804 [kJ/mol]       0.00373412 [Eh]         819.544 [cm^-1]
  Correction ZPE            2.343 [kcal/mol]        9.804 [kJ/mol]       0.00373412 [Eh]         819.544 [cm^-1]
  Total ZPE, Electronic energy at 0 [K]                              -1194.54565269 [Eh]

  Thermal Energy, E (includes ZPE)
    Electronic E            0.000 [kcal/mol]        0.000 [kJ/mol]       0.00000000 [Eh]
    Translational E         0.889 [kcal/mol]        3.718 [kJ/mol]       0.00141628 [Eh]
    Rotational E            0.889 [kcal/mol]        3.718 [kJ/mol]       0.00141628 [Eh]
    Vibrational E           2.787 [kcal/mol]       11.660 [kJ/mol]       0.00444106 [Eh]
  Correction E              4.564 [kcal/mol]       19.097 [kJ/mol]       0.00727362 [Eh]
  Total E, Electronic energy at  298.15 [K]                          -1194.54211320 [Eh]

  Enthalpy, H_trans = E_trans + k_B * T
    Electronic H            0.000 [kcal/mol]        0.000 [kJ/mol]       0.00000000 [Eh]
    Translational H         1.481 [kcal/mol]        6.197 [kJ/mol]       0.00236046 [Eh]
    Rotational H            0.889 [kcal/mol]        3.718 [kJ/mol]       0.00141628 [Eh]
    Vibrational H           2.787 [kcal/mol]       11.660 [kJ/mol]       0.00444106 [Eh]
  Correction H              5.157 [kcal/mol]       21.576 [kJ/mol]       0.00821780 [Eh]
  Total H, Enthalpy at  298.15 [K]                                   -1194.54116901 [Eh]

  Gibbs free energy, G = H - T * S
    Electronic G            0.000 [kcal/mol]        0.000 [kJ/mol]       0.00000000 [Eh]
    Translational G       -10.324 [kcal/mol]      -43.194 [kJ/mol]      -0.01645179 [Eh]
    Rotational G           -6.549 [kcal/mol]      -27.402 [kJ/mol]      -0.01043697 [Eh]
    Vibrational G           2.103 [kcal/mol]        8.797 [kJ/mol]       0.00335058 [Eh]
  Correction G            -14.770 [kcal/mol]      -61.799 [kJ/mol]      -0.02353817 [Eh]
  Total G, Free enthalpy at  298.15 [K]                              -1194.57292498 [Eh]

    Psi4 stopped on: Tuesday, 02 February 2021 07:12PM
    Psi4 wall time for execution: 4:32:42.73

*** Psi4 exiting successfully. Buy a developer a beer!
