
Host: ss-sub1.gacrc.uga.edu

Timers On : Wed Mar 10 12:52:36 2021
Timers Off: Wed Mar 10 13:16:45 2021

Wall Time:     1448.83 seconds

                                                       Time (seconds)
Module                                       User      System        Wall        Calls

--------------------------------------------------------------------------------------

**************************************************************************************
