
    -----------------------------------------------------------------------
          Psi4: An Open-Source Ab Initio Electronic Structure Package
                               Psi4 1.4a2.dev191 

                         Git: Rev {master} 0ab5346 


    R. M. Parrish, L. A. Burns, D. G. A. Smith, A. C. Simmonett,
    A. E. DePrince III, E. G. Hohenstein, U. Bozkaya, A. Yu. Sokolov,
    R. Di Remigio, R. M. Richard, J. F. Gonthier, A. M. James,
    H. R. McAlexander, A. Kumar, M. Saitow, X. Wang, B. P. Pritchard,
    P. Verma, H. F. Schaefer III, K. Patkowski, R. A. King, E. F. Valeev,
    F. A. Evangelista, J. M. Turney, T. D. Crawford, and C. D. Sherrill,
    J. Chem. Theory Comput. 13(7) pp 3185--3197 (2017).
    (doi: 10.1021/acs.jctc.7b00174)


                         Additional Contributions by
    P. Kraus, H. Kruse, M. H. Lechner, M. C. Schieber, R. A. Shaw,
    A. Alenaizan, R. Galvelis, Z. L. Glick, S. Lehtola, and J. P. Misiewicz

    -----------------------------------------------------------------------


    Psi4 started on: Wednesday, 03 February 2021 05:10PM

    Process ID: 9675
    Host:       b1-5.compute.lan
    PSIDATADIR: /apps/gb/PSI4/1.4.0/share/psi4
    Memory:     500.0 MiB
    Threads:    1
    
  ==> Input File <==

--------------------------------------------------------------------------
memory 10 GB

molecule  {
0 3
S
S 1 r1
r1 = 2.0
}

set {
reference uks
basis aug-cc-pvtz
g_convergence gau_verytight
dft_spherical_points 590
dft_radial_points 99
}

optimize('wb97x-d')
frequencies('wb97x-d')

--------------------------------------------------------------------------

  Memory set to   9.313 GiB by Python driver.
gradient() will perform analytic gradient computation.

*** tstart() called on b1-5.compute.lan
*** at Wed Feb  3 17:10:26 2021

   => Loading Basis Set <=

    Name: AUG-CC-PVTZ
    Role: ORBITAL
    Keyword: BASIS
    atoms 1-2 entry S          line   906 file /apps/gb/PSI4/1.4.0/share/psi4/basis/aug-cc-pvtz.gbs 

   => WB97X-D: Empirical Dispersion <=

    Chai and Head-Gordon Dispersion Correction
    Chai, J.-D.; Head-Gordon, M. (2010), J. Chem. Phys., 132: 6615-6620

        s6 =       1.000000


         ---------------------------------------------------------
                                   SCF
               by Justin Turney, Rob Parrish, Andy Simmonett
                          and Daniel G. A. Smith
                              UKS Reference
                        1 Threads,   9536 MiB Core
         ---------------------------------------------------------

  ==> Geometry <==

    Molecular point group: d2h
    Full point group: D_inf_h

    Geometry (in Angstrom), charge = 0, multiplicity = 3:

       Center              X                  Y                   Z               Mass       
    ------------   -----------------  -----------------  -----------------  -----------------
         S            0.000000000000     0.000000000000    -1.000000000000    31.972071174400
         S            0.000000000000     0.000000000000     1.000000000000    31.972071174400

  Running in d2h symmetry.

  Rotational constants: A = ************  B =      0.26363  C =      0.26363 [cm^-1]
  Rotational constants: A = ************  B =   7903.44495  C =   7903.44495 [MHz]
  Nuclear repulsion =   67.734682965759930

  Charge       = 0
  Multiplicity = 3
  Electrons    = 32
  Nalpha       = 17
  Nbeta        = 15

  ==> Algorithm <==

  SCF Algorithm Type is DF.
  DIIS enabled.
  MOM disabled.
  Fractional occupation disabled.
  Guess Type is SAD.
  Energy threshold   = 1.00e-08
  Density threshold  = 1.00e-08
  Integral threshold = 0.00e+00

  ==> Primary Basis <==

  Basis Set: AUG-CC-PVTZ
    Blend: AUG-CC-PVTZ
    Number of shells: 32
    Number of basis function: 100
    Number of Cartesian functions: 118
    Spherical Harmonics?: true
    Max angular momentum: 3

  ==> DFT Potential <==

   => Composite Functional: WB97X-D <= 

    wB97X-D Hyb-GGA Exchange-Correlation Functional

    J.-D. Chai and M. Head-Gordon, Phys. Chem. Chem. Phys. 10, 6615 (2008)

    Deriv               =              1
    GGA                 =           TRUE
    Meta                =          FALSE

    Exchange Hybrid     =           TRUE
    MP2 Hybrid          =          FALSE

   => Exchange-Correlation Functionals <=

    1.0000   wB97D range-separated functional

   => Exact (HF) Exchange <=

    0.7780            HF,LR [omega = 0.2000]
    0.2220               HF 

   => Molecular Quadrature <=

    Radial Scheme          =       TREUTLER
    Pruning Scheme         =           NONE
    Nuclear Scheme         =       TREUTLER

    BS radius alpha        =              1
    Pruning alpha          =              1
    Radial Points          =             99
    Spherical Points       =            590
    Total Points           =         113376
    Total Blocks           =            984
    Max Points             =            255
    Max Functions          =            100
    Weights Tolerance      =       1.00E-15

   => Loading Basis Set <=

    Name: (AUG-CC-PVTZ AUX)
    Role: JKFIT
    Keyword: DF_BASIS_SCF
    atoms 1-2 entry S          line   730 file /apps/gb/PSI4/1.4.0/share/psi4/basis/aug-cc-pvtz-jkfit.gbs 

  ==> Pre-Iterations <==

   -------------------------------------------------------
    Irrep   Nso     Nmo     Nalpha   Nbeta   Ndocc  Nsocc
   -------------------------------------------------------
     Ag        21      21       0       0       0       0
     B1g        5       5       0       0       0       0
     B2g       12      12       0       0       0       0
     B3g       12      12       0       0       0       0
     Au         5       5       0       0       0       0
     B1u       21      21       0       0       0       0
     B2u       12      12       0       0       0       0
     B3u       12      12       0       0       0       0
   -------------------------------------------------------
    Total     100     100      17      15      15       2
   -------------------------------------------------------

  ==> Integral Setup <==

  ==> DiskDFJK: Density-Fitted J/K Matrices <==

    J tasked:                  Yes
    K tasked:                  Yes
    wK tasked:                 Yes
    Omega:               2.000E-01
    OpenMP threads:              1
    Integrals threads:           1
    Memory [MiB]:             6842
    Algorithm:                Core
    Integral Cache:           NONE
    Schwarz Cutoff:          1E-12
    Fitting Condition:       1E-10

   => Auxiliary Basis Set <=

  Basis Set: (AUG-CC-PVTZ AUX)
    Blend: AUG-CC-PVTZ-JKFIT
    Number of shells: 84
    Number of basis function: 292
    Number of Cartesian functions: 360
    Spherical Harmonics?: true
    Max angular momentum: 4

  Cached 100.0% of DFT collocation blocks in 0.302 [GiB].

  Minimum eigenvalue in the overlap matrix is 2.7190206739E-04.
  Using Symmetric Orthogonalization.

  SCF Guess: Superposition of Atomic Densities via on-the-fly atomic UHF.

  ==> Iterations <==

                           Total Energy        Delta E     RMS |[F,P]|

   @DF-UKS iter SAD:  -795.91936976521345   -7.95919e+02   0.00000e+00 
   @DF-UKS iter   1:  -796.37037529552742   -4.51006e-01   5.92257e-03 DIIS
   @DF-UKS iter   2:  -796.38494129494143   -1.45660e-02   2.07309e-03 DIIS
   @DF-UKS iter   3:  -796.38656607319058   -1.62478e-03   2.45236e-04 DIIS
   @DF-UKS iter   4:  -796.38671044070020   -1.44368e-04   4.21377e-05 DIIS
   @DF-UKS iter   5:  -796.38671304056243   -2.59986e-06   1.91295e-05 DIIS
   @DF-UKS iter   6:  -796.38671349300807   -4.52446e-07   2.42493e-06 DIIS
   @DF-UKS iter   7:  -796.38671350711161   -1.41035e-08   3.64505e-07 DIIS
   @DF-UKS iter   8:  -796.38671350744107   -3.29464e-10   5.36699e-08 DIIS
   @DF-UKS iter   9:  -796.38671350744835   -7.27596e-12   8.99705e-09 DIIS
  Energy and wave function converged.


  ==> Post-Iterations <==

   @Spin Contamination Metric:   1.252186384E-02
   @S^2 Expected:                2.000000000E+00
   @S^2 Observed:                2.012521864E+00
   @S   Expected:                1.000000000E+00
   @S   Observed:                1.000000000E+00

    Orbital Energies [Eh]
    ---------------------

    Alpha Occupied:                                                       

       1B1u  -89.119195     1Ag   -89.119187     2Ag    -8.123421  
       2B1u   -8.123326     1B2u   -6.070949     1B3u   -6.070949  
       1B3g   -6.070923     1B2g   -6.070923     3Ag    -6.070438  
       3B1u   -6.070033     4Ag    -0.919177     4B1u   -0.743487  
       5Ag    -0.477335     2B3u   -0.456389     2B2u   -0.456389  
       2B3g   -0.338751     2B2g   -0.338751  

    Alpha Virtual:                                                        

       5B1u    0.021796     6B1u    0.079365     6Ag     0.085346  
       3B3u    0.093227     3B2u    0.093227     7Ag     0.104414  
       3B2g    0.116211     3B3g    0.116211     8Ag     0.190404  
       1B1g    0.190405     7B1u    0.207293     4B2u    0.232567  
       4B3u    0.232567     9Ag     0.286336     8B1u    0.295919  
       1Au     0.295919     9B1u    0.363642     4B3g    0.370198  
       4B2g    0.370198     5B3u    0.454671     5B2u    0.454671  
       6B2u    0.549923     6B3u    0.549923    10B1u    0.565031  
      10Ag     0.568938    11Ag     0.570093     2B1g    0.570094  
      12Ag     0.570739     5B2g    0.573161     5B3g    0.573161  
      13Ag     0.643672    11B1u    0.645291     2Au     0.645292  
       7B3u    0.706340     7B2u    0.706340     6B3g    0.724123  
       6B2g    0.724123    14Ag     0.765832     3B1g    0.765832  
      12B1u    0.832280     7B2g    0.848579     7B3g    0.848579  
       8B2u    1.006101     8B3u    1.006101    13B1u    1.044230  
       3Au     1.044230    14B1u    1.052659     8B2g    1.208663  
       8B3g    1.208663    15Ag     1.273155    15B1u    1.440671  
       4B1g    1.759537    16Ag     1.759541    16B1u    1.823298  
       9B3u    1.828663     9B2u    1.828663     4Au     1.834215  
      17B1u    1.834220    17Ag     1.948455     9B2g    1.952655  
       9B3g    1.952655    10B2u    2.009369    10B3u    2.009369  
      18Ag     2.046600     5B1g    2.046600    19Ag     2.055693  
      11B2u    2.060777    11B3u    2.060777    12B2u    2.088853  
      12B3u    2.088853    10B3g    2.150365    10B2g    2.150365  
      18B1u    2.284928     5Au     2.284930    11B2g    2.292227  
      11B3g    2.292227    19B1u    2.409079    20Ag     2.494893  
      12B3g    2.593309    12B2g    2.593309    20B1u    3.648993  
      21Ag     4.444468    21B1u    5.272204  

    Beta Occupied:                                                        

       1B1u  -89.113225     1Ag   -89.113219     2Ag    -8.117454  
       2B1u   -8.117313     3Ag    -6.066785     3B1u   -6.066374  
       1B2u   -6.058651     1B3u   -6.058651     1B3g   -6.058618  
       1B2g   -6.058618     4Ag    -0.885636     4B1u   -0.679753  
       5Ag    -0.454932     2B3u   -0.395822     2B2u   -0.395822  

    Beta Virtual:                                                         

       2B2g   -0.083985     2B3g   -0.083985     5B1u    0.035195  
       6Ag     0.087261     6B1u    0.092364     3B3u    0.096742  
       3B2u    0.096742     7Ag     0.106854     3B2g    0.127158  
       3B3g    0.127158     8Ag     0.197714     1B1g    0.197714  
       7B1u    0.209935     4B2u    0.248083     4B3u    0.248083  
       9Ag     0.292699     8B1u    0.308171     1Au     0.308171  
       9B1u    0.366874     4B3g    0.376320     4B2g    0.376320  
       5B3u    0.464650     5B2u    0.464650     6B2u    0.565231  
       6B3u    0.565231    10Ag     0.570195    10B1u    0.574015  
      11Ag     0.579774     5B2g    0.581799     5B3g    0.581799  
      12Ag     0.593974     2B1g    0.593975    13Ag     0.656967  
      11B1u    0.682704     2Au     0.682705     7B3u    0.710550  
       7B2u    0.710550     6B3g    0.744985     6B2g    0.744985  
       3B1g    0.775918    14Ag     0.775918    12B1u    0.847776  
       7B2g    0.855479     7B3g    0.855479     8B2u    1.012162  
       8B3u    1.012162    13B1u    1.050306     3Au     1.050306  
      14B1u    1.058374     8B2g    1.221455     8B3g    1.221455  
      15Ag     1.288961    15B1u    1.458486     4B1g    1.789398  
      16Ag     1.789401    16B1u    1.833967     9B3u    1.842925  
       9B2u    1.842925     4Au     1.862167    17B1u    1.862171  
      17Ag     1.953363     9B2g    1.976487     9B3g    1.976487  
      10B2u    2.029340    10B3u    2.029340    18Ag     2.069333  
       5B1g    2.071069    19Ag     2.071071    11B2u    2.095081  
      11B3u    2.095081    12B2u    2.131619    12B3u    2.131619  
      10B3g    2.192596    10B2g    2.192596     5Au     2.313582  
      18B1u    2.313582    11B2g    2.317228    11B3g    2.317228  
      19B1u    2.426461    20Ag     2.507815    12B3g    2.616319  
      12B2g    2.616319    20B1u    3.657443    21Ag     4.464114  
      21B1u    5.287098  

    Final Occupation by Irrep:
             Ag   B1g   B2g   B3g    Au   B1u   B2u   B3u 
    DOCC [     5,    0,    1,    1,    0,    4,    2,    2 ]
    SOCC [     0,    0,    1,    1,    0,    0,    0,    0 ]

  @DF-UKS Final Energy:  -796.38671350744835

   => Energetics <=

    Nuclear Repulsion Energy =             67.7346829657599301
    One-Electron Energy =               -1234.1843780725489523
    Two-Electron Energy =                 407.5126610684617958
    DFT Exchange-Correlation Energy =     -37.4496687745778374
    Empirical Dispersion Energy =          -0.0000106945433699
    VV10 Nonlocal Energy =                  0.0000000000000000
    Total Energy =                       -796.3867135074484622

  UHF NO Occupations:
  HONO-2 :    2B3u 1.9974803
  HONO-1 :    2B3g 1.0000000
  HONO-0 :    2B2g 1.0000000
  LUNO+0 :    3B3u 0.0025197
  LUNO+1 :    3B2u 0.0025197
  LUNO+2 :    5B1u 0.0006479
  LUNO+3 :    6 Ag 0.0005278


Computation Completed


Properties will be evaluated at   0.000000,   0.000000,   0.000000 [a0]

Properties computed using the SCF density matrix

  Nuclear Dipole Moment: [e a0]
     X:     0.0000      Y:     0.0000      Z:     0.0000

  Electronic Dipole Moment: [e a0]
     X:     0.0000      Y:     0.0000      Z:     0.0000

  Dipole Moment: [e a0]
     X:     0.0000      Y:     0.0000      Z:     0.0000     Total:     0.0000

  Dipole Moment: [D]
     X:     0.0000      Y:     0.0000      Z:     0.0000     Total:     0.0000


*** tstop() called on b1-5.compute.lan at Wed Feb  3 17:10:42 2021
Module time:
	user time   =      15.25 seconds =       0.25 minutes
	system time =       0.14 seconds =       0.00 minutes
	total time  =         16 seconds =       0.27 minutes
Total time:
	user time   =      15.25 seconds =       0.25 minutes
	system time =       0.14 seconds =       0.00 minutes
	total time  =         16 seconds =       0.27 minutes

*** tstart() called on b1-5.compute.lan
*** at Wed Feb  3 17:10:42 2021


         ------------------------------------------------------------
                                   SCF GRAD                          
                          Rob Parrish, Justin Turney,                
                       Andy Simmonett, and Alex Sokolov              
         ------------------------------------------------------------

  ==> Geometry <==

    Molecular point group: d2h
    Full point group: D_inf_h

    Geometry (in Angstrom), charge = 0, multiplicity = 3:

       Center              X                  Y                   Z               Mass       
    ------------   -----------------  -----------------  -----------------  -----------------
         S            0.000000000000     0.000000000000    -1.000000000000    31.972071174400
         S            0.000000000000     0.000000000000     1.000000000000    31.972071174400

  Nuclear repulsion =   67.734682965759930

  ==> Basis Set <==

  Basis Set: AUG-CC-PVTZ
    Blend: AUG-CC-PVTZ
    Number of shells: 32
    Number of basis function: 100
    Number of Cartesian functions: 118
    Spherical Harmonics?: true
    Max angular momentum: 3

  ==> DFJKGrad: Density-Fitted SCF Gradients <==

    Gradient:                    1
    J tasked:                  Yes
    K tasked:                  Yes
    wK tasked:                 Yes
    Omega:               2.000E-01
    OpenMP threads:              1
    Integrals threads:           1
    Memory [MiB]:             7152
    Schwarz Cutoff:          0E+00
    Fitting Condition:       1E-10

   => Auxiliary Basis Set <=

  Basis Set: (AUG-CC-PVTZ AUX)
    Blend: AUG-CC-PVTZ-JKFIT
    Number of shells: 84
    Number of basis function: 292
    Number of Cartesian functions: 360
    Spherical Harmonics?: true
    Max angular momentum: 4

  ==> DFT Potential <==

   => Composite Functional: WB97X-D <= 

    wB97X-D Hyb-GGA Exchange-Correlation Functional

    J.-D. Chai and M. Head-Gordon, Phys. Chem. Chem. Phys. 10, 6615 (2008)

    Deriv               =              1
    GGA                 =           TRUE
    Meta                =          FALSE

    Exchange Hybrid     =           TRUE
    MP2 Hybrid          =          FALSE

   => Exchange-Correlation Functionals <=

    1.0000   wB97D range-separated functional

   => Exact (HF) Exchange <=

    0.7780            HF,LR [omega = 0.2000]
    0.2220               HF 

   => Molecular Quadrature <=

    Radial Scheme          =       TREUTLER
    Pruning Scheme         =           NONE
    Nuclear Scheme         =       TREUTLER

    BS radius alpha        =              1
    Pruning alpha          =              1
    Radial Points          =             99
    Spherical Points       =            590
    Total Points           =         113376
    Total Blocks           =            984
    Max Points             =            255
    Max Functions          =            100
    Weights Tolerance      =       1.00E-15


  -Total Gradient:
     Atom            X                  Y                   Z
    ------   -----------------  -----------------  -----------------
       1        0.000000000000    -0.000000000000    -0.053227986132
       2        0.000000000000     0.000000000000     0.053227986132


*** tstop() called on b1-5.compute.lan at Wed Feb  3 17:10:46 2021
Module time:
	user time   =       4.64 seconds =       0.08 minutes
	system time =       0.04 seconds =       0.00 minutes
	total time  =          4 seconds =       0.07 minutes
Total time:
	user time   =      19.89 seconds =       0.33 minutes
	system time =       0.18 seconds =       0.00 minutes
	total time  =         20 seconds =       0.33 minutes

			-----------------------------------------
			 OPTKING 2.0: for geometry optimizations 
			  - R.A. King,  Bethel University        
			-----------------------------------------

	Internal coordinates to be generated automatically.
	Detected frag 1 with atoms:  1 2
	---Fragment 1 Bond Connectivity---
	 1 : 2
	 2 : 1

	---Fragment 1 Geometry and Gradient---
	 S           0.0000000000        0.0000000000       -1.8897261255
	 S           0.0000000000        0.0000000000        1.8897261255
	             0.0000000000       -0.0000000000       -0.0532279861
	             0.0000000000        0.0000000000        0.0532279861

	Previous optimization step data not found.  Starting new optimization.

	---Fragment 1 Intrafragment Coordinates---
	 - Coordinate -           - BOHR/RAD -       - ANG/DEG -
	 R(1,2)           =         3.779452	       2.000000

	Current energy   :      -796.3867135074

	Generating empirical Hessian (Schlegel '84) for each fragment.
	Taking RFO optimization step.
	Going to follow RFO solution 1.
	Using RFO vector 1.
	Norm of target step-size    0.15040
	Projected energy change by RFO approximation:         0.0032315202

	Back-transformation to cartesian coordinates...
	Successfully converged to displaced geometry.

	--- Internal Coordinate Step in ANG or DEG, aJ/ANG or AJ/DEG ---
	 ---------------------------------------------------------------------------
	   Coordinate                Previous        Force       Change         New 
	   ----------                --------       ------       ------       ------
	    1 R(1,2)          =      2.000000    -0.438531    -0.079588     1.920412
	 ---------------------------------------------------------------------------
	Successfully symmetrized geometry.

  ==> Convergence Check <==

  Measures of convergence in internal coordinates in au.
  Criteria marked as inactive (o), active & met (*), and active & unmet ( ).
  --------------------------------------------------------------------------------------------- ~
   Step     Total Energy     Delta E     MAX Force     RMS Force      MAX Disp      RMS Disp    ~
  --------------------------------------------------------------------------------------------- ~
    Convergence Criteria             o    2.00e-06 *    1.00e-06 *    6.00e-06 *    4.00e-06 *  ~
  --------------------------------------------------------------------------------------------- ~
      1    -796.38671351   -7.96e+02 o    5.32e-02      5.32e-02      1.50e-01      1.50e-01    ~
  ---------------------------------------------------------------------------------------------

	Writing optimization data to binary file.
	Structure for next step:
	Cartesian Geometry (in Angstrom)
	    S     0.0000000000   0.0000000000  -0.9602057961
	    S     0.0000000000   0.0000000000   0.9602057961
			--------------------------
			 OPTKING Finished Execution 
			--------------------------

    Structure for next step:
    Molecular point group: d2h
    Full point group: D_inf_h

    Geometry (in Angstrom), charge = 0, multiplicity = 3:

    S       
    S             1          r1

    r1        =    1.9204115998

gradient() will perform analytic gradient computation.

*** tstart() called on b1-5.compute.lan
*** at Wed Feb  3 17:10:46 2021

   => Loading Basis Set <=

    Name: AUG-CC-PVTZ
    Role: ORBITAL
    Keyword: BASIS
    atoms 1-2 entry S          line   906 file /apps/gb/PSI4/1.4.0/share/psi4/basis/aug-cc-pvtz.gbs 

   => WB97X-D: Empirical Dispersion <=

    Chai and Head-Gordon Dispersion Correction
    Chai, J.-D.; Head-Gordon, M. (2010), J. Chem. Phys., 132: 6615-6620

        s6 =       1.000000


         ---------------------------------------------------------
                                   SCF
               by Justin Turney, Rob Parrish, Andy Simmonett
                          and Daniel G. A. Smith
                              UKS Reference
                        1 Threads,   9536 MiB Core
         ---------------------------------------------------------

  ==> Geometry <==

    Molecular point group: d2h
    Full point group: D_inf_h

    Geometry (in Angstrom), charge = 0, multiplicity = 3:

       Center              X                  Y                   Z               Mass       
    ------------   -----------------  -----------------  -----------------  -----------------
         S            0.000000000000     0.000000000000    -0.960205799910    31.972071174400
         S            0.000000000000     0.000000000000     0.960205799910    31.972071174400

  Running in d2h symmetry.

  Rotational constants: A = ************  B =      0.28593  C =      0.28593 [cm^-1]
  Rotational constants: A = ************  B =   8572.11093  C =   8572.11093 [MHz]
  Nuclear repulsion =   70.541839022561348

  Charge       = 0
  Multiplicity = 3
  Electrons    = 32
  Nalpha       = 17
  Nbeta        = 15

  ==> Algorithm <==

  SCF Algorithm Type is DF.
  DIIS enabled.
  MOM disabled.
  Fractional occupation disabled.
  Guess Type is READ.
  Energy threshold   = 1.00e-08
  Density threshold  = 1.00e-08
  Integral threshold = 0.00e+00

  ==> Primary Basis <==

  Basis Set: AUG-CC-PVTZ
    Blend: AUG-CC-PVTZ
    Number of shells: 32
    Number of basis function: 100
    Number of Cartesian functions: 118
    Spherical Harmonics?: true
    Max angular momentum: 3

  ==> DFT Potential <==

   => Composite Functional: WB97X-D <= 

    wB97X-D Hyb-GGA Exchange-Correlation Functional

    J.-D. Chai and M. Head-Gordon, Phys. Chem. Chem. Phys. 10, 6615 (2008)

    Deriv               =              1
    GGA                 =           TRUE
    Meta                =          FALSE

    Exchange Hybrid     =           TRUE
    MP2 Hybrid          =          FALSE

   => Exchange-Correlation Functionals <=

    1.0000   wB97D range-separated functional

   => Exact (HF) Exchange <=

    0.7780            HF,LR [omega = 0.2000]
    0.2220               HF 

   => Molecular Quadrature <=

    Radial Scheme          =       TREUTLER
    Pruning Scheme         =           NONE
    Nuclear Scheme         =       TREUTLER

    BS radius alpha        =              1
    Pruning alpha          =              1
    Radial Points          =             99
    Spherical Points       =            590
    Total Points           =         113360
    Total Blocks           =            984
    Max Points             =            256
    Max Functions          =            100
    Weights Tolerance      =       1.00E-15

   => Loading Basis Set <=

    Name: (AUG-CC-PVTZ AUX)
    Role: JKFIT
    Keyword: DF_BASIS_SCF
    atoms 1-2 entry S          line   730 file /apps/gb/PSI4/1.4.0/share/psi4/basis/aug-cc-pvtz-jkfit.gbs 

   => Loading Basis Set <=

    Name: AUG-CC-PVTZ
    Role: ORBITAL
    Keyword: BASIS
    atoms 1-2 entry S          line   906 file /apps/gb/PSI4/1.4.0/share/psi4/basis/aug-cc-pvtz.gbs 

  Reading orbitals from file 180, no projection.

  ==> Pre-Iterations <==

   -------------------------------------------------------
    Irrep   Nso     Nmo     Nalpha   Nbeta   Ndocc  Nsocc
   -------------------------------------------------------
     Ag        21      21       0       0       0       0
     B1g        5       5       0       0       0       0
     B2g       12      12       0       0       0       0
     B3g       12      12       0       0       0       0
     Au         5       5       0       0       0       0
     B1u       21      21       0       0       0       0
     B2u       12      12       0       0       0       0
     B3u       12      12       0       0       0       0
   -------------------------------------------------------
    Total     100     100      17      15      15       2
   -------------------------------------------------------

  ==> Integral Setup <==

  ==> DiskDFJK: Density-Fitted J/K Matrices <==

    J tasked:                  Yes
    K tasked:                  Yes
    wK tasked:                 Yes
    Omega:               2.000E-01
    OpenMP threads:              1
    Integrals threads:           1
    Memory [MiB]:             6842
    Algorithm:                Core
    Integral Cache:           NONE
    Schwarz Cutoff:          1E-12
    Fitting Condition:       1E-10

   => Auxiliary Basis Set <=

  Basis Set: (AUG-CC-PVTZ AUX)
    Blend: AUG-CC-PVTZ-JKFIT
    Number of shells: 84
    Number of basis function: 292
    Number of Cartesian functions: 360
    Spherical Harmonics?: true
    Max angular momentum: 4

  Cached 100.0% of DFT collocation blocks in 0.303 [GiB].

  Minimum eigenvalue in the overlap matrix is 2.2599782792E-04.
  Using Symmetric Orthogonalization.

  SCF Guess: Orbitals guess was supplied from a previous computation.

  ==> Iterations <==

                           Total Energy        Delta E     RMS |[F,P]|

   @DF-UKS iter   0:  -796.42516502548324   -7.96425e+02   5.26847e-03 
   @DF-UKS iter   1:  -796.39159383369145    3.35712e-02   7.27851e-04 DIIS
   @DF-UKS iter   2:  -796.39194612217716   -3.52288e-04   4.78014e-04 DIIS
   @DF-UKS iter   3:  -796.39212969914138   -1.83577e-04   3.00023e-05 DIIS
   @DF-UKS iter   4:  -796.39213095854507   -1.25940e-06   8.14090e-06 DIIS
   @DF-UKS iter   5:  -796.39213106665454   -1.08109e-07   1.43498e-06 DIIS
   @DF-UKS iter   6:  -796.39213107133605   -4.68151e-09   3.08158e-07 DIIS
   @DF-UKS iter   7:  -796.39213107161106   -2.75008e-10   5.18467e-08 DIIS
   @DF-UKS iter   8:  -796.39213107161720   -6.13909e-12   9.09771e-09 DIIS
  Energy and wave function converged.


  ==> Post-Iterations <==

   @Spin Contamination Metric:   1.199248322E-02
   @S^2 Expected:                2.000000000E+00
   @S^2 Observed:                2.011992483E+00
   @S   Expected:                1.000000000E+00
   @S   Observed:                1.000000000E+00

    Orbital Energies [Eh]
    ---------------------

    Alpha Occupied:                                                       

       1B1u  -89.113148     1Ag   -89.113142     2Ag    -8.119317  
       2B1u   -8.119159     1B2u   -6.066771     1B3u   -6.066771  
       1B3g   -6.066723     1B2g   -6.066723     3Ag    -6.066134  
       3B1u   -6.065457     4Ag    -0.937010     4B1u   -0.734629  
       5Ag    -0.482524     2B3u   -0.464895     2B2u   -0.464895  
       2B2g   -0.330501     2B3g   -0.330501  

    Alpha Virtual:                                                        

       5B1u    0.035947     6Ag     0.085557     6B1u    0.089581  
       3B2u    0.092000     3B3u    0.092000     7Ag     0.103148  
       3B3g    0.115957     3B2g    0.115957     8Ag     0.188885  
       1B1g    0.188886     7B1u    0.209071     4B2u    0.236252  
       4B3u    0.236252     9Ag     0.281433     8B1u    0.299956  
       1Au     0.299956     4B2g    0.372452     4B3g    0.372452  
       9B1u    0.374197     5B2u    0.451879     5B3u    0.451879  
       6B3u    0.549456     6B2u    0.549456    10Ag     0.559181  
      10B1u    0.561528    11Ag     0.564869     2B1g    0.564872  
      12Ag     0.568791     5B2g    0.577156     5B3g    0.577156  
      11B1u    0.649154     2Au     0.649157    13Ag     0.660915  
       7B3u    0.703540     7B2u    0.703540     6B2g    0.737902  
       6B3g    0.737902    14Ag     0.777137     3B1g    0.777137  
       7B2g    0.855176     7B3g    0.855176    12B1u    0.862811  
       8B2u    1.022360     8B3u    1.022360    13B1u    1.057341  
       3Au     1.057342    14B1u    1.088589     8B3g    1.220498  
       8B2g    1.220498    15Ag     1.301498    15B1u    1.438857  
       4B1g    1.762259    16Ag     1.762266     9B3u    1.811962  
       9B2u    1.811962    16B1u    1.813181     4Au     1.840424  
      17B1u    1.840430    17Ag     1.930226     9B3g    1.940702  
       9B2g    1.940702    18Ag     2.022646     5B1g    2.022654  
      10B2u    2.029646    10B3u    2.029646    19Ag     2.035526  
      11B3u    2.069778    11B2u    2.069778    12B3u    2.084577  
      12B2u    2.084577    10B2g    2.156185    10B3g    2.156185  
      18B1u    2.314909     5Au     2.314919    11B2g    2.341730  
      11B3g    2.341730    19B1u    2.455767    20Ag     2.632485  
      12B2g    2.649736    12B3g    2.649736    20B1u    3.656800  
      21Ag     4.580835    21B1u    5.341138  

    Beta Occupied:                                                        

       1B1u  -89.107220     1Ag   -89.107215     2Ag    -8.113358  
       2B1u   -8.113150     3Ag    -6.062474     3B1u   -6.061789  
       1B2u   -6.054533     1B3u   -6.054533     1B3g   -6.054476  
       1B2g   -6.054476     4Ag    -0.905831     4B1u   -0.670615  
       5Ag    -0.458693     2B3u   -0.406734     2B2u   -0.406734  

    Beta Virtual:                                                         

       2B3g   -0.075044     2B2g   -0.075044     5B1u    0.047427  
       6Ag     0.087803     3B2u    0.096507     3B3u    0.096507  
       6B1u    0.105798     7Ag     0.106510     3B3g    0.129025  
       3B2g    0.129025     8Ag     0.196281     1B1g    0.196281  
       7B1u    0.212515     4B3u    0.252384     4B2u    0.252384  
       9Ag     0.287822     8B1u    0.311851     1Au     0.311851  
       9B1u    0.377777     4B2g    0.378555     4B3g    0.378555  
       5B2u    0.460958     5B3u    0.460958    10Ag     0.565423  
       6B3u    0.565998     6B2u    0.565998    10B1u    0.571270  
      11Ag     0.573337     5B3g    0.585718     5B2g    0.585718  
      12Ag     0.587598     2B1g    0.587600    13Ag     0.673480  
      11B1u    0.686890     2Au     0.686891     7B3u    0.707586  
       7B2u    0.707586     6B2g    0.758565     6B3g    0.758565  
       3B1g    0.787492    14Ag     0.787492     7B2g    0.862113  
       7B3g    0.862113    12B1u    0.877245     8B2u    1.028481  
       8B3u    1.028481    13B1u    1.063753     3Au     1.063753  
      14B1u    1.095320     8B3g    1.234206     8B2g    1.234206  
      15Ag     1.318908    15B1u    1.454872     4B1g    1.791890  
      16Ag     1.791895     9B3u    1.824639     9B2u    1.824639  
      16B1u    1.825201     4Au     1.868020    17B1u    1.868026  
      17Ag     1.935008     9B3g    1.964706     9B2g    1.964706  
      18Ag     2.046023     5B1g    2.046028    19Ag     2.049109  
      10B2u    2.052894    10B3u    2.052894    11B3u    2.101379  
      11B2u    2.101379    12B3u    2.126848    12B2u    2.126848  
      10B2g    2.198403    10B3g    2.198403    18B1u    2.343886  
       5Au     2.343891    11B2g    2.366635    11B3g    2.366635  
      19B1u    2.473486    20Ag     2.645504    12B2g    2.672641  
      12B3g    2.672641    20B1u    3.665352    21Ag     4.600195  
      21B1u    5.355633  

    Final Occupation by Irrep:
             Ag   B1g   B2g   B3g    Au   B1u   B2u   B3u 
    DOCC [     5,    0,    1,    1,    0,    4,    2,    2 ]
    SOCC [     0,    0,    1,    1,    0,    0,    0,    0 ]

  @DF-UKS Final Energy:  -796.39213107161720

   => Energetics <=

    Nuclear Repulsion Energy =             70.5418390225613479
    One-Electron Energy =               -1239.8317605426400405
    Two-Electron Energy =                 410.3748674985230309
    DFT Exchange-Correlation Energy =     -37.4770686670078632
    Empirical Dispersion Energy =          -0.0000083830535957
    VV10 Nonlocal Energy =                  0.0000000000000000
    Total Energy =                       -796.3921310716170865

  UHF NO Occupations:
  HONO-2 :    2B3u 1.9976228
  HONO-1 :    2B2g 1.0000000
  HONO-0 :    2B3g 1.0000000
  LUNO+0 :    3B3u 0.0023772
  LUNO+1 :    3B2u 0.0023772
  LUNO+2 :    5B1u 0.0006700
  LUNO+3 :    6 Ag 0.0005311


Computation Completed


Properties will be evaluated at   0.000000,   0.000000,   0.000000 [a0]

Properties computed using the SCF density matrix

  Nuclear Dipole Moment: [e a0]
     X:     0.0000      Y:     0.0000      Z:     0.0000

  Electronic Dipole Moment: [e a0]
     X:     0.0000      Y:     0.0000      Z:     0.0000

  Dipole Moment: [e a0]
     X:     0.0000      Y:     0.0000      Z:     0.0000     Total:     0.0000

  Dipole Moment: [D]
     X:     0.0000      Y:     0.0000      Z:     0.0000     Total:     0.0000


*** tstop() called on b1-5.compute.lan at Wed Feb  3 17:11:01 2021
Module time:
	user time   =      14.24 seconds =       0.24 minutes
	system time =       0.03 seconds =       0.00 minutes
	total time  =         15 seconds =       0.25 minutes
Total time:
	user time   =      34.14 seconds =       0.57 minutes
	system time =       0.21 seconds =       0.00 minutes
	total time  =         35 seconds =       0.58 minutes

*** tstart() called on b1-5.compute.lan
*** at Wed Feb  3 17:11:01 2021


         ------------------------------------------------------------
                                   SCF GRAD                          
                          Rob Parrish, Justin Turney,                
                       Andy Simmonett, and Alex Sokolov              
         ------------------------------------------------------------

  ==> Geometry <==

    Molecular point group: d2h
    Full point group: D_inf_h

    Geometry (in Angstrom), charge = 0, multiplicity = 3:

       Center              X                  Y                   Z               Mass       
    ------------   -----------------  -----------------  -----------------  -----------------
         S            0.000000000000     0.000000000000    -0.960205799910    31.972071174400
         S            0.000000000000     0.000000000000     0.960205799910    31.972071174400

  Nuclear repulsion =   70.541839022561348

  ==> Basis Set <==

  Basis Set: AUG-CC-PVTZ
    Blend: AUG-CC-PVTZ
    Number of shells: 32
    Number of basis function: 100
    Number of Cartesian functions: 118
    Spherical Harmonics?: true
    Max angular momentum: 3

  ==> DFJKGrad: Density-Fitted SCF Gradients <==

    Gradient:                    1
    J tasked:                  Yes
    K tasked:                  Yes
    wK tasked:                 Yes
    Omega:               2.000E-01
    OpenMP threads:              1
    Integrals threads:           1
    Memory [MiB]:             7152
    Schwarz Cutoff:          0E+00
    Fitting Condition:       1E-10

   => Auxiliary Basis Set <=

  Basis Set: (AUG-CC-PVTZ AUX)
    Blend: AUG-CC-PVTZ-JKFIT
    Number of shells: 84
    Number of basis function: 292
    Number of Cartesian functions: 360
    Spherical Harmonics?: true
    Max angular momentum: 4

  ==> DFT Potential <==

   => Composite Functional: WB97X-D <= 

    wB97X-D Hyb-GGA Exchange-Correlation Functional

    J.-D. Chai and M. Head-Gordon, Phys. Chem. Chem. Phys. 10, 6615 (2008)

    Deriv               =              1
    GGA                 =           TRUE
    Meta                =          FALSE

    Exchange Hybrid     =           TRUE
    MP2 Hybrid          =          FALSE

   => Exchange-Correlation Functionals <=

    1.0000   wB97D range-separated functional

   => Exact (HF) Exchange <=

    0.7780            HF,LR [omega = 0.2000]
    0.2220               HF 

   => Molecular Quadrature <=

    Radial Scheme          =       TREUTLER
    Pruning Scheme         =           NONE
    Nuclear Scheme         =       TREUTLER

    BS radius alpha        =              1
    Pruning alpha          =              1
    Radial Points          =             99
    Spherical Points       =            590
    Total Points           =         113360
    Total Blocks           =            984
    Max Points             =            256
    Max Functions          =            100
    Weights Tolerance      =       1.00E-15


  -Total Gradient:
     Atom            X                  Y                   Z
    ------   -----------------  -----------------  -----------------
       1       -0.000000000000     0.000000000000    -0.016494325283
       2        0.000000000000    -0.000000000000     0.016494325283


*** tstop() called on b1-5.compute.lan at Wed Feb  3 17:11:06 2021
Module time:
	user time   =       4.90 seconds =       0.08 minutes
	system time =       0.02 seconds =       0.00 minutes
	total time  =          5 seconds =       0.08 minutes
Total time:
	user time   =      39.04 seconds =       0.65 minutes
	system time =       0.23 seconds =       0.00 minutes
	total time  =         40 seconds =       0.67 minutes

			-----------------------------------------
			 OPTKING 2.0: for geometry optimizations 
			  - R.A. King,  Bethel University        
			-----------------------------------------

	Previous internal coordinate definitions found.
	---Fragment 1 Geometry and Gradient---
	 S           0.0000000000        0.0000000000       -1.8145259859
	 S           0.0000000000        0.0000000000        1.8145259859
	            -0.0000000000        0.0000000000       -0.0164943253
	             0.0000000000       -0.0000000000        0.0164943253

	---Fragment 1 Intrafragment Coordinates---
	 - Coordinate -           - BOHR/RAD -       - ANG/DEG -
	 R(1,2)           =         3.629052	       1.920412

	Current energy   :      -796.3921310716

	Energy change for the previous step:
		Projected    :         0.0032315202
		Actual       :        -0.0054175642

	Performing BFGS update.
	Previous computed or guess Hessian on step 1.
	Steps to be used in Hessian update: 1
	Taking RFO optimization step.
	Going to follow RFO solution 1.
	Using RFO vector 1.
	Norm of target step-size    0.06723
	Projected energy change by RFO approximation:         0.0011457548

	Back-transformation to cartesian coordinates...
	Successfully converged to displaced geometry.

	--- Internal Coordinate Step in ANG or DEG, aJ/ANG or AJ/DEG ---
	 ---------------------------------------------------------------------------
	   Coordinate                Previous        Force       Change         New 
	   ----------                --------       ------       ------       ------
	    1 R(1,2)          =      1.920412    -0.135892    -0.035576     1.884836
	 ---------------------------------------------------------------------------
	Successfully symmetrized geometry.

  ==> Convergence Check <==

  Measures of convergence in internal coordinates in au.
  Criteria marked as inactive (o), active & met (*), and active & unmet ( ).
  ---------------------------------------------------------------------------------------------
   Step     Total Energy     Delta E     MAX Force     RMS Force      MAX Disp      RMS Disp   
  ---------------------------------------------------------------------------------------------
    Convergence Criteria             o    2.00e-06 *    1.00e-06 *    6.00e-06 *    4.00e-06 *
  ---------------------------------------------------------------------------------------------
      2    -796.39213107   -5.42e-03 o    1.65e-02      1.65e-02      6.72e-02      6.72e-02    ~
  ---------------------------------------------------------------------------------------------

	Writing optimization data to binary file.
	Structure for next step:
	Cartesian Geometry (in Angstrom)
	    S     0.0000000000   0.0000000000  -0.9424179723
	    S     0.0000000000   0.0000000000   0.9424179723
			--------------------------
			 OPTKING Finished Execution 
			--------------------------

    Structure for next step:
    Molecular point group: d2h
    Full point group: D_inf_h

    Geometry (in Angstrom), charge = 0, multiplicity = 3:

    S       
    S             1          r1

    r1        =    1.8848359521

gradient() will perform analytic gradient computation.

*** tstart() called on b1-5.compute.lan
*** at Wed Feb  3 17:11:06 2021

   => Loading Basis Set <=

    Name: AUG-CC-PVTZ
    Role: ORBITAL
    Keyword: BASIS
    atoms 1-2 entry S          line   906 file /apps/gb/PSI4/1.4.0/share/psi4/basis/aug-cc-pvtz.gbs 

   => WB97X-D: Empirical Dispersion <=

    Chai and Head-Gordon Dispersion Correction
    Chai, J.-D.; Head-Gordon, M. (2010), J. Chem. Phys., 132: 6615-6620

        s6 =       1.000000


         ---------------------------------------------------------
                                   SCF
               by Justin Turney, Rob Parrish, Andy Simmonett
                          and Daniel G. A. Smith
                              UKS Reference
                        1 Threads,   9536 MiB Core
         ---------------------------------------------------------

  ==> Geometry <==

    Molecular point group: d2h
    Full point group: D_inf_h

    Geometry (in Angstrom), charge = 0, multiplicity = 3:

       Center              X                  Y                   Z               Mass       
    ------------   -----------------  -----------------  -----------------  -----------------
         S            0.000000000000     0.000000000000    -0.942417976034    31.972071174400
         S            0.000000000000     0.000000000000     0.942417976034    31.972071174400

  Running in d2h symmetry.

  Rotational constants: A = ************  B =      0.29683  C =      0.29683 [cm^-1]
  Rotational constants: A = ************  B =   8898.75622  C =   8898.75622 [MHz]
  Nuclear repulsion =   71.873292624149343

  Charge       = 0
  Multiplicity = 3
  Electrons    = 32
  Nalpha       = 17
  Nbeta        = 15

  ==> Algorithm <==

  SCF Algorithm Type is DF.
  DIIS enabled.
  MOM disabled.
  Fractional occupation disabled.
  Guess Type is READ.
  Energy threshold   = 1.00e-08
  Density threshold  = 1.00e-08
  Integral threshold = 0.00e+00

  ==> Primary Basis <==

  Basis Set: AUG-CC-PVTZ
    Blend: AUG-CC-PVTZ
    Number of shells: 32
    Number of basis function: 100
    Number of Cartesian functions: 118
    Spherical Harmonics?: true
    Max angular momentum: 3

  ==> DFT Potential <==

   => Composite Functional: WB97X-D <= 

    wB97X-D Hyb-GGA Exchange-Correlation Functional

    J.-D. Chai and M. Head-Gordon, Phys. Chem. Chem. Phys. 10, 6615 (2008)

    Deriv               =              1
    GGA                 =           TRUE
    Meta                =          FALSE

    Exchange Hybrid     =           TRUE
    MP2 Hybrid          =          FALSE

   => Exchange-Correlation Functionals <=

    1.0000   wB97D range-separated functional

   => Exact (HF) Exchange <=

    0.7780            HF,LR [omega = 0.2000]
    0.2220               HF 

   => Molecular Quadrature <=

    Radial Scheme          =       TREUTLER
    Pruning Scheme         =           NONE
    Nuclear Scheme         =       TREUTLER

    BS radius alpha        =              1
    Pruning alpha          =              1
    Radial Points          =             99
    Spherical Points       =            590
    Total Points           =         113350
    Total Blocks           =            978
    Max Points             =            255
    Max Functions          =            100
    Weights Tolerance      =       1.00E-15

   => Loading Basis Set <=

    Name: (AUG-CC-PVTZ AUX)
    Role: JKFIT
    Keyword: DF_BASIS_SCF
    atoms 1-2 entry S          line   730 file /apps/gb/PSI4/1.4.0/share/psi4/basis/aug-cc-pvtz-jkfit.gbs 

   => Loading Basis Set <=

    Name: AUG-CC-PVTZ
    Role: ORBITAL
    Keyword: BASIS
    atoms 1-2 entry S          line   906 file /apps/gb/PSI4/1.4.0/share/psi4/basis/aug-cc-pvtz.gbs 

  Reading orbitals from file 180, no projection.

  ==> Pre-Iterations <==

   -------------------------------------------------------
    Irrep   Nso     Nmo     Nalpha   Nbeta   Ndocc  Nsocc
   -------------------------------------------------------
     Ag        21      21       0       0       0       0
     B1g        5       5       0       0       0       0
     B2g       12      12       0       0       0       0
     B3g       12      12       0       0       0       0
     Au         5       5       0       0       0       0
     B1u       21      21       0       0       0       0
     B2u       12      12       0       0       0       0
     B3u       12      12       0       0       0       0
   -------------------------------------------------------
    Total     100     100      17      15      15       2
   -------------------------------------------------------

  ==> Integral Setup <==

  ==> DiskDFJK: Density-Fitted J/K Matrices <==

    J tasked:                  Yes
    K tasked:                  Yes
    wK tasked:                 Yes
    Omega:               2.000E-01
    OpenMP threads:              1
    Integrals threads:           1
    Memory [MiB]:             6842
    Algorithm:                Core
    Integral Cache:           NONE
    Schwarz Cutoff:          1E-12
    Fitting Condition:       1E-10

   => Auxiliary Basis Set <=

  Basis Set: (AUG-CC-PVTZ AUX)
    Blend: AUG-CC-PVTZ-JKFIT
    Number of shells: 84
    Number of basis function: 292
    Number of Cartesian functions: 360
    Spherical Harmonics?: true
    Max angular momentum: 4

  Cached 100.0% of DFT collocation blocks in 0.303 [GiB].

  Minimum eigenvalue in the overlap matrix is 2.0790469848E-04.
  Using Symmetric Orthogonalization.

  SCF Guess: Orbitals guess was supplied from a previous computation.

  ==> Iterations <==

                           Total Energy        Delta E     RMS |[F,P]|

   @DF-UKS iter   0:  -796.40703165557852   -7.96407e+02   2.60705e-03 
   @DF-UKS iter   1:  -796.39240592362376    1.46257e-02   3.34741e-04 DIIS
   @DF-UKS iter   2:  -796.39248073020713   -7.48066e-05   2.17757e-04 DIIS
   @DF-UKS iter   3:  -796.39251846715285   -3.77369e-05   1.44829e-05 DIIS
   @DF-UKS iter   4:  -796.39251873804255   -2.70890e-07   4.12453e-06 DIIS
   @DF-UKS iter   5:  -796.39251876536730   -2.73247e-08   6.95041e-07 DIIS
   @DF-UKS iter   6:  -796.39251876652133   -1.15404e-09   1.44654e-07 DIIS
   @DF-UKS iter   7:  -796.39251876658193   -6.05951e-11   2.17828e-08 DIIS
   @DF-UKS iter   8:  -796.39251876658273   -7.95808e-13   4.10839e-09 DIIS
  Energy and wave function converged.


  ==> Post-Iterations <==

   @Spin Contamination Metric:   1.174790363E-02
   @S^2 Expected:                2.000000000E+00
   @S^2 Observed:                2.011747904E+00
   @S   Expected:                1.000000000E+00
   @S   Observed:                1.000000000E+00

    Orbital Energies [Eh]
    ---------------------

    Alpha Occupied:                                                       

       1B1u  -89.110093     1Ag   -89.110087     2Ag    -8.117339  
       2B1u   -8.117138     1B2u   -6.064734     1B3u   -6.064734  
       1B3g   -6.064671     1B2g   -6.064671     3Ag    -6.064079  
       3B1u   -6.063225     4Ag    -0.945762     4B1u   -0.730503  
       5Ag    -0.484640     2B3u   -0.469128     2B2u   -0.469128  
       2B3g   -0.326553     2B2g   -0.326553  

    Alpha Virtual:                                                        

       5B1u    0.040521     6Ag     0.085660     3B2u    0.091393  
       3B3u    0.091393     6B1u    0.096023     7Ag     0.102593  
       3B3g    0.115845     3B2g    0.115845     8Ag     0.188157  
       1B1g    0.188157     7B1u    0.209988     4B2u    0.237877  
       4B3u    0.237877     9Ag     0.279066     8B1u    0.301778  
       1Au     0.301778     4B3g    0.373400     4B2g    0.373400  
       9B1u    0.379179     5B3u    0.450412     5B2u    0.450412  
       6B3u    0.549469     6B2u    0.549469    10Ag     0.554639  
      10B1u    0.559944    11Ag     0.562362     2B1g    0.562366  
      12Ag     0.568028     5B3g    0.578827     5B2g    0.578827  
      11B1u    0.650986     2Au     0.650989    13Ag     0.669185  
       7B3u    0.702346     7B2u    0.702346     6B3g    0.744707  
       6B2g    0.744707     3B1g    0.782357    14Ag     0.782357  
       7B2g    0.858184     7B3g    0.858184    12B1u    0.876789  
       8B2u    1.029463     8B3u    1.029463    13B1u    1.063230  
       3Au     1.063231    14B1u    1.106516     8B3g    1.226499  
       8B2g    1.226499    15Ag     1.313876    15B1u    1.434695  
       4B1g    1.763404    16Ag     1.763409     9B3u    1.801327  
       9B2u    1.801327    16B1u    1.812971     4Au     1.843482  
      17B1u    1.843487    17Ag     1.923251     9B2g    1.934620  
       9B3g    1.934620    18Ag     2.011720     5B1g    2.011729  
      19Ag     2.026081    10B3u    2.037284    10B2u    2.037284  
      11B3u    2.081357    11B2u    2.081357    12B3u    2.082106  
      12B2u    2.082106    10B2g    2.159197    10B3g    2.159197  
      18B1u    2.329432     5Au     2.329444    11B2g    2.365653  
      11B3g    2.365653    19B1u    2.479228    12B2g    2.675134  
      12B3g    2.675134    20Ag     2.697295    20B1u    3.637490  
      21Ag     4.649103    21B1u    5.396058  

    Beta Occupied:                                                        

       1B1u  -89.104190     1Ag   -89.104185     2Ag    -8.111391  
       2B1u   -8.111138     3Ag    -6.060424     3B1u   -6.059561  
       1B2u   -6.052533     1B3u   -6.052533     1B3g   -6.052460  
       1B2g   -6.052460     4Ag    -0.915655     4B1u   -0.666384  
       5Ag    -0.460108     2B3u   -0.412090     2B2u   -0.412090  

    Beta Virtual:                                                         

       2B2g   -0.070841     2B3g   -0.070841     5B1u    0.051544  
       6Ag     0.088058     3B3u    0.096402     3B2u    0.096402  
       7Ag     0.106435     6B1u    0.113213     3B3g    0.129958  
       3B2g    0.129958     8Ag     0.195600     1B1g    0.195600  
       7B1u    0.213868     4B2u    0.254294     4B3u    0.254294  
       9Ag     0.285514     8B1u    0.313503     1Au     0.313503  
       4B3g    0.379516     4B2g    0.379516     9B1u    0.382958  
       5B3u    0.459054     5B2u    0.459054    10Ag     0.561902  
       6B3u    0.566617     6B2u    0.566617    10B1u    0.570054  
      11Ag     0.571816    12Ag     0.584579     2B1g    0.584581  
       5B3g    0.587380     5B2g    0.587380    13Ag     0.681459  
      11B1u    0.688864     2Au     0.688865     7B3u    0.706317  
       7B2u    0.706317     6B3g    0.765245     6B2g    0.765245  
       3B1g    0.792805    14Ag     0.792806     7B2g    0.865138  
       7B3g    0.865138    12B1u    0.890601     8B2u    1.035656  
       8B3u    1.035656    13B1u    1.069829     3Au     1.069830  
      14B1u    1.113792     8B3g    1.240593     8B2g    1.240593  
      15Ag     1.331961    15B1u    1.449691     4B1g    1.792841  
      16Ag     1.792846     9B3u    1.813319     9B2u    1.813319  
      16B1u    1.825682     4Au     1.870886    17B1u    1.870891  
      17Ag     1.927968     9B2g    1.958631     9B3g    1.958631  
      18Ag     2.034634     5B1g    2.034639    19Ag     2.039646  
      10B3u    2.064022    10B2u    2.064022    11B3u    2.109732  
      11B2u    2.109732    12B3u    2.124100    12B2u    2.124100  
      10B2g    2.201410    10B3g    2.201410    18B1u    2.358563  
       5Au     2.358568    11B2g    2.390605    11B3g    2.390605  
      19B1u    2.496887    12B2g    2.697983    12B3g    2.697983  
      20Ag     2.710365    20B1u    3.646251    21Ag     4.668330  
      21B1u    5.410290  

    Final Occupation by Irrep:
             Ag   B1g   B2g   B3g    Au   B1u   B2u   B3u 
    DOCC [     5,    0,    1,    1,    0,    4,    2,    2 ]
    SOCC [     0,    0,    1,    1,    0,    0,    0,    0 ]

  @DF-UKS Final Energy:  -796.39251876658273

   => Energetics <=

    Nuclear Repulsion Energy =             71.8732926241493431
    One-Electron Energy =               -1242.5062644371623719
    Two-Electron Energy =                 411.7312097792009240
    DFT Exchange-Correlation Energy =     -37.4907492390936739
    Empirical Dispersion Energy =          -0.0000074936768997
    VV10 Nonlocal Energy =                  0.0000000000000000
    Total Energy =                       -796.3925187665826115

  UHF NO Occupations:
  HONO-2 :    2B3u 1.9976873
  HONO-1 :    2B2g 1.0000000
  HONO-0 :    2B3g 1.0000000
  LUNO+0 :    3B3u 0.0023127
  LUNO+1 :    3B2u 0.0023127
  LUNO+2 :    5B1u 0.0006779
  LUNO+3 :    6 Ag 0.0005324


Computation Completed


Properties will be evaluated at   0.000000,   0.000000,   0.000000 [a0]

Properties computed using the SCF density matrix

  Nuclear Dipole Moment: [e a0]
     X:     0.0000      Y:     0.0000      Z:     0.0000

  Electronic Dipole Moment: [e a0]
     X:     0.0000      Y:     0.0000      Z:     0.0000

  Dipole Moment: [e a0]
     X:     0.0000      Y:     0.0000      Z:     0.0000     Total:     0.0000

  Dipole Moment: [D]
     X:     0.0000      Y:     0.0000      Z:     0.0000     Total:     0.0000


*** tstop() called on b1-5.compute.lan at Wed Feb  3 17:11:19 2021
Module time:
	user time   =      13.88 seconds =       0.23 minutes
	system time =       0.04 seconds =       0.00 minutes
	total time  =         13 seconds =       0.22 minutes
Total time:
	user time   =      52.94 seconds =       0.88 minutes
	system time =       0.27 seconds =       0.00 minutes
	total time  =         53 seconds =       0.88 minutes

*** tstart() called on b1-5.compute.lan
*** at Wed Feb  3 17:11:19 2021


         ------------------------------------------------------------
                                   SCF GRAD                          
                          Rob Parrish, Justin Turney,                
                       Andy Simmonett, and Alex Sokolov              
         ------------------------------------------------------------

  ==> Geometry <==

    Molecular point group: d2h
    Full point group: D_inf_h

    Geometry (in Angstrom), charge = 0, multiplicity = 3:

       Center              X                  Y                   Z               Mass       
    ------------   -----------------  -----------------  -----------------  -----------------
         S            0.000000000000     0.000000000000    -0.942417976034    31.972071174400
         S            0.000000000000     0.000000000000     0.942417976034    31.972071174400

  Nuclear repulsion =   71.873292624149343

  ==> Basis Set <==

  Basis Set: AUG-CC-PVTZ
    Blend: AUG-CC-PVTZ
    Number of shells: 32
    Number of basis function: 100
    Number of Cartesian functions: 118
    Spherical Harmonics?: true
    Max angular momentum: 3

  ==> DFJKGrad: Density-Fitted SCF Gradients <==

    Gradient:                    1
    J tasked:                  Yes
    K tasked:                  Yes
    wK tasked:                 Yes
    Omega:               2.000E-01
    OpenMP threads:              1
    Integrals threads:           1
    Memory [MiB]:             7152
    Schwarz Cutoff:          0E+00
    Fitting Condition:       1E-10

   => Auxiliary Basis Set <=

  Basis Set: (AUG-CC-PVTZ AUX)
    Blend: AUG-CC-PVTZ-JKFIT
    Number of shells: 84
    Number of basis function: 292
    Number of Cartesian functions: 360
    Spherical Harmonics?: true
    Max angular momentum: 4

  ==> DFT Potential <==

   => Composite Functional: WB97X-D <= 

    wB97X-D Hyb-GGA Exchange-Correlation Functional

    J.-D. Chai and M. Head-Gordon, Phys. Chem. Chem. Phys. 10, 6615 (2008)

    Deriv               =              1
    GGA                 =           TRUE
    Meta                =          FALSE

    Exchange Hybrid     =           TRUE
    MP2 Hybrid          =          FALSE

   => Exchange-Correlation Functionals <=

    1.0000   wB97D range-separated functional

   => Exact (HF) Exchange <=

    0.7780            HF,LR [omega = 0.2000]
    0.2220               HF 

   => Molecular Quadrature <=

    Radial Scheme          =       TREUTLER
    Pruning Scheme         =           NONE
    Nuclear Scheme         =       TREUTLER

    BS radius alpha        =              1
    Pruning alpha          =              1
    Radial Points          =             99
    Spherical Points       =            590
    Total Points           =         113350
    Total Blocks           =            978
    Max Points             =            255
    Max Functions          =            100
    Weights Tolerance      =       1.00E-15


  -Total Gradient:
     Atom            X                  Y                   Z
    ------   -----------------  -----------------  -----------------
       1       -0.000000000000     0.000000000000     0.005427091293
       2        0.000000000000     0.000000000000    -0.005427091293


*** tstop() called on b1-5.compute.lan at Wed Feb  3 17:11:25 2021
Module time:
	user time   =       5.25 seconds =       0.09 minutes
	system time =       0.01 seconds =       0.00 minutes
	total time  =          6 seconds =       0.10 minutes
Total time:
	user time   =      58.19 seconds =       0.97 minutes
	system time =       0.28 seconds =       0.00 minutes
	total time  =         59 seconds =       0.98 minutes

			-----------------------------------------
			 OPTKING 2.0: for geometry optimizations 
			  - R.A. King,  Bethel University        
			-----------------------------------------

	Previous internal coordinate definitions found.
	---Fragment 1 Geometry and Gradient---
	 S           0.0000000000        0.0000000000       -1.7809118704
	 S           0.0000000000        0.0000000000        1.7809118704
	            -0.0000000000        0.0000000000        0.0054270913
	             0.0000000000        0.0000000000       -0.0054270913

	---Fragment 1 Intrafragment Coordinates---
	 - Coordinate -           - BOHR/RAD -       - ANG/DEG -
	 R(1,2)           =         3.561824	       1.884836

	Current energy   :      -796.3925187666

	Energy change for the previous step:
		Projected    :         0.0011457548
		Actual       :        -0.0003876950

	Performing BFGS update.
	Previous computed or guess Hessian on step 1.
	Steps to be used in Hessian update: 2 1
	Taking RFO optimization step.
	Going to follow RFO solution 1.
	Using RFO vector 1.
	Norm of target step-size    0.02013
	Projected energy change by RFO approximation:         0.0000932944

	Back-transformation to cartesian coordinates...
	Successfully converged to displaced geometry.

	--- Internal Coordinate Step in ANG or DEG, aJ/ANG or AJ/DEG ---
	 ---------------------------------------------------------------------------
	   Coordinate                Previous        Force       Change         New 
	   ----------                --------       ------       ------       ------
	    1 R(1,2)          =      1.884836     0.044712     0.010651     1.895487
	 ---------------------------------------------------------------------------
	Successfully symmetrized geometry.

  ==> Convergence Check <==

  Measures of convergence in internal coordinates in au.
  Criteria marked as inactive (o), active & met (*), and active & unmet ( ).
  ---------------------------------------------------------------------------------------------
   Step     Total Energy     Delta E     MAX Force     RMS Force      MAX Disp      RMS Disp   
  ---------------------------------------------------------------------------------------------
    Convergence Criteria             o    2.00e-06 *    1.00e-06 *    6.00e-06 *    4.00e-06 *
  ---------------------------------------------------------------------------------------------
      3    -796.39251877   -3.88e-04 o    5.43e-03      5.43e-03      2.01e-02      2.01e-02    ~
  ---------------------------------------------------------------------------------------------

	Writing optimization data to binary file.
	Structure for next step:
	Cartesian Geometry (in Angstrom)
	    S     0.0000000000   0.0000000000  -0.9477436203
	    S     0.0000000000   0.0000000000   0.9477436203
			--------------------------
			 OPTKING Finished Execution 
			--------------------------

    Structure for next step:
    Molecular point group: d2h
    Full point group: D_inf_h

    Geometry (in Angstrom), charge = 0, multiplicity = 3:

    S       
    S             1          r1

    r1        =    1.8954872480

gradient() will perform analytic gradient computation.

*** tstart() called on b1-5.compute.lan
*** at Wed Feb  3 17:11:25 2021

   => Loading Basis Set <=

    Name: AUG-CC-PVTZ
    Role: ORBITAL
    Keyword: BASIS
    atoms 1-2 entry S          line   906 file /apps/gb/PSI4/1.4.0/share/psi4/basis/aug-cc-pvtz.gbs 

   => WB97X-D: Empirical Dispersion <=

    Chai and Head-Gordon Dispersion Correction
    Chai, J.-D.; Head-Gordon, M. (2010), J. Chem. Phys., 132: 6615-6620

        s6 =       1.000000


         ---------------------------------------------------------
                                   SCF
               by Justin Turney, Rob Parrish, Andy Simmonett
                          and Daniel G. A. Smith
                              UKS Reference
                        1 Threads,   9536 MiB Core
         ---------------------------------------------------------

  ==> Geometry <==

    Molecular point group: d2h
    Full point group: D_inf_h

    Geometry (in Angstrom), charge = 0, multiplicity = 3:

       Center              X                  Y                   Z               Mass       
    ------------   -----------------  -----------------  -----------------  -----------------
         S            0.000000000000     0.000000000000    -0.947743624007    31.972071174400
         S            0.000000000000     0.000000000000     0.947743624007    31.972071174400

  Running in d2h symmetry.

  Rotational constants: A = ************  B =      0.29350  C =      0.29350 [cm^-1]
  Rotational constants: A = ************  B =   8799.02780  C =   8799.02780 [MHz]
  Nuclear repulsion =   71.469415620396447

  Charge       = 0
  Multiplicity = 3
  Electrons    = 32
  Nalpha       = 17
  Nbeta        = 15

  ==> Algorithm <==

  SCF Algorithm Type is DF.
  DIIS enabled.
  MOM disabled.
  Fractional occupation disabled.
  Guess Type is READ.
  Energy threshold   = 1.00e-08
  Density threshold  = 1.00e-08
  Integral threshold = 0.00e+00

  ==> Primary Basis <==

  Basis Set: AUG-CC-PVTZ
    Blend: AUG-CC-PVTZ
    Number of shells: 32
    Number of basis function: 100
    Number of Cartesian functions: 118
    Spherical Harmonics?: true
    Max angular momentum: 3

  ==> DFT Potential <==

   => Composite Functional: WB97X-D <= 

    wB97X-D Hyb-GGA Exchange-Correlation Functional

    J.-D. Chai and M. Head-Gordon, Phys. Chem. Chem. Phys. 10, 6615 (2008)

    Deriv               =              1
    GGA                 =           TRUE
    Meta                =          FALSE

    Exchange Hybrid     =           TRUE
    MP2 Hybrid          =          FALSE

   => Exchange-Correlation Functionals <=

    1.0000   wB97D range-separated functional

   => Exact (HF) Exchange <=

    0.7780            HF,LR [omega = 0.2000]
    0.2220               HF 

   => Molecular Quadrature <=

    Radial Scheme          =       TREUTLER
    Pruning Scheme         =           NONE
    Nuclear Scheme         =       TREUTLER

    BS radius alpha        =              1
    Pruning alpha          =              1
    Radial Points          =             99
    Spherical Points       =            590
    Total Points           =         113342
    Total Blocks           =            982
    Max Points             =            256
    Max Functions          =            100
    Weights Tolerance      =       1.00E-15

   => Loading Basis Set <=

    Name: (AUG-CC-PVTZ AUX)
    Role: JKFIT
    Keyword: DF_BASIS_SCF
    atoms 1-2 entry S          line   730 file /apps/gb/PSI4/1.4.0/share/psi4/basis/aug-cc-pvtz-jkfit.gbs 

   => Loading Basis Set <=

    Name: AUG-CC-PVTZ
    Role: ORBITAL
    Keyword: BASIS
    atoms 1-2 entry S          line   906 file /apps/gb/PSI4/1.4.0/share/psi4/basis/aug-cc-pvtz.gbs 

  Reading orbitals from file 180, no projection.

  ==> Pre-Iterations <==

   -------------------------------------------------------
    Irrep   Nso     Nmo     Nalpha   Nbeta   Ndocc  Nsocc
   -------------------------------------------------------
     Ag        21      21       0       0       0       0
     B1g        5       5       0       0       0       0
     B2g       12      12       0       0       0       0
     B3g       12      12       0       0       0       0
     Au         5       5       0       0       0       0
     B1u       21      21       0       0       0       0
     B2u       12      12       0       0       0       0
     B3u       12      12       0       0       0       0
   -------------------------------------------------------
    Total     100     100      17      15      15       2
   -------------------------------------------------------

  ==> Integral Setup <==

  ==> DiskDFJK: Density-Fitted J/K Matrices <==

    J tasked:                  Yes
    K tasked:                  Yes
    wK tasked:                 Yes
    Omega:               2.000E-01
    OpenMP threads:              1
    Integrals threads:           1
    Memory [MiB]:             6842
    Algorithm:                Core
    Integral Cache:           NONE
    Schwarz Cutoff:          1E-12
    Fitting Condition:       1E-10

   => Auxiliary Basis Set <=

  Basis Set: (AUG-CC-PVTZ AUX)
    Blend: AUG-CC-PVTZ-JKFIT
    Number of shells: 84
    Number of basis function: 292
    Number of Cartesian functions: 360
    Spherical Harmonics?: true
    Max angular momentum: 4

  Cached 100.0% of DFT collocation blocks in 0.303 [GiB].

  Minimum eigenvalue in the overlap matrix is 2.1317124661E-04.
  Using Symmetric Orthogonalization.

  SCF Guess: Orbitals guess was supplied from a previous computation.

  ==> Iterations <==

                           Total Energy        Delta E     RMS |[F,P]|

   @DF-UKS iter   0:  -796.38852221002549   -7.96389e+02   7.94512e-04 
   @DF-UKS iter   1:  -796.39254926986291   -4.02706e-03   1.02130e-04 DIIS
   @DF-UKS iter   2:  -796.39255622552605   -6.95566e-06   6.61753e-05 DIIS
   @DF-UKS iter   3:  -796.39255972564752   -3.50012e-06   4.39634e-06 DIIS
   @DF-UKS iter   4:  -796.39255975065669   -2.50092e-08   1.26183e-06 DIIS
   @DF-UKS iter   5:  -796.39255975325386   -2.59718e-09   2.11746e-07 DIIS
   @DF-UKS iter   6:  -796.39255975336141   -1.07548e-10   4.45943e-08 DIIS
   @DF-UKS iter   7:  -796.39255975336755   -6.13909e-12   6.88234e-09 DIIS
  Energy and wave function converged.


  ==> Post-Iterations <==

   @Spin Contamination Metric:   1.182168799E-02
   @S^2 Expected:                2.000000000E+00
   @S^2 Observed:                2.011821688E+00
   @S   Expected:                1.000000000E+00
   @S   Observed:                1.000000000E+00

    Orbital Energies [Eh]
    ---------------------

    Alpha Occupied:                                                       

       1B1u  -89.111031     1Ag   -89.111025     2Ag    -8.117939  
       2B1u   -8.117752     1B2u   -6.065354     1B3u   -6.065354  
       1B3g   -6.065296     1B2g   -6.065296     3Ag    -6.064700  
       3B1u   -6.063903     4Ag    -0.943093     4B1u   -0.731748  
       5Ag    -0.484024     2B2u   -0.467831     2B3u   -0.467831  
       2B3g   -0.327752     2B2g   -0.327752  

    Alpha Virtual:                                                        

       5B1u    0.039268     6Ag     0.085628     3B3u    0.091579  
       3B2u    0.091579     6B1u    0.093980     7Ag     0.102758  
       3B3g    0.115879     3B2g    0.115879     8Ag     0.188379  
       1B1g    0.188379     7B1u    0.209703     4B2u    0.237393  
       4B3u    0.237393     9Ag     0.279783     8B1u    0.301232  
       1Au     0.301232     4B3g    0.373120     4B2g    0.373120  
       9B1u    0.377673     5B3u    0.450865     5B2u    0.450865  
       6B2u    0.549451     6B3u    0.549451    10Ag     0.555998  
      10B1u    0.560419    11Ag     0.563125     2B1g    0.563128  
      12Ag     0.568250     5B3g    0.578333     5B2g    0.578333  
      11B1u    0.650431     2Au     0.650434    13Ag     0.666678  
       7B2u    0.702700     7B3u    0.702700     6B3g    0.742628  
       6B2g    0.742628     3B1g    0.780784    14Ag     0.780784  
       7B3g    0.857280     7B2g    0.857280    12B1u    0.872603  
       8B2u    1.027349     8B3u    1.027349    13B1u    1.061465  
       3Au     1.061466    14B1u    1.101018     8B3g    1.224651  
       8B2g    1.224651    15Ag     1.310195    15B1u    1.436180  
       4B1g    1.763075    16Ag     1.763081     9B2u    1.804647  
       9B3u    1.804647    16B1u    1.812708     4Au     1.842546  
      17B1u    1.842552    17Ag     1.925266     9B3g    1.936487  
       9B2g    1.936487    18Ag     2.014985     5B1g    2.014994  
      19Ag     2.028931    10B2u    2.035379    10B3u    2.035379  
      11B2u    2.077185    11B3u    2.077185    12B2u    2.082885  
      12B3u    2.082885    10B3g    2.158267    10B2g    2.158267  
      18B1u    2.325016     5Au     2.325028    11B3g    2.358378  
      11B2g    2.358378    19B1u    2.472037    12B3g    2.667519  
      12B2g    2.667519    20Ag     2.677711    20B1u    3.644721  
      21Ag     4.628193    21B1u    5.377813  

    Beta Occupied:                                                        

       1B1u  -89.105120     1Ag   -89.105115     2Ag    -8.111987  
       2B1u   -8.111749     3Ag    -6.061043     3B1u   -6.060238  
       1B2u   -6.053141     1B3u   -6.053141     1B3g   -6.053074  
       1B2g   -6.053074     4Ag    -0.912664     4B1u   -0.667659  
       5Ag    -0.459704     2B2u   -0.410453     2B3u   -0.410453  

    Beta Virtual:                                                         

       2B3g   -0.072113     2B2g   -0.072113     5B1u    0.050391  
       6Ag     0.087981     3B3u    0.096433     3B2u    0.096433  
       7Ag     0.106452     6B1u    0.110920     3B3g    0.129672  
       3B2g    0.129672     8Ag     0.195807     1B1g    0.195807  
       7B1u    0.213447     4B2u    0.253724     4B3u    0.253724  
       9Ag     0.286211     8B1u    0.313008     1Au     0.313008  
       4B3g    0.379231     4B2g    0.379231     9B1u    0.381389  
       5B2u    0.459640     5B3u    0.459640    10Ag     0.563015  
       6B3u    0.566413     6B2u    0.566413    10B1u    0.570417  
      11Ag     0.572205    12Ag     0.585495     2B1g    0.585496  
       5B3g    0.586887     5B2g    0.586887    13Ag     0.679037  
      11B1u    0.688266     2Au     0.688268     7B2u    0.706693  
       7B3u    0.706693     6B3g    0.763205     6B2g    0.763205  
       3B1g    0.791206    14Ag     0.791206     7B3g    0.864229  
       7B2g    0.864229    12B1u    0.886608     8B2u    1.033517  
       8B3u    1.033517    13B1u    1.068006     3Au     1.068006  
      14B1u    1.108126     8B3g    1.238632     8B2g    1.238632  
      15Ag     1.328083    15B1u    1.451492     4B1g    1.792578  
      16Ag     1.792583     9B2u    1.816840     9B3u    1.816840  
      16B1u    1.825210     4Au     1.870010    17B1u    1.870015  
      17Ag     1.930006     9B3g    1.960500     9B2g    1.960500  
      18Ag     2.038034     5B1g    2.038038    19Ag     2.042501  
      10B2u    2.060990    10B3u    2.060990    11B2u    2.106607  
      11B3u    2.106607    12B2u    2.124966    12B3u    2.124966  
      10B3g    2.200481    10B2g    2.200481    18B1u    2.354100  
       5Au     2.354105    11B3g    2.383309    11B2g    2.383309  
      19B1u    2.489730    12B3g    2.690384    12B2g    2.690384  
      20Ag     2.690766    20B1u    3.653408    21Ag     4.647460  
      21B1u    5.392130  

    Final Occupation by Irrep:
             Ag   B1g   B2g   B3g    Au   B1u   B2u   B3u 
    DOCC [     5,    0,    1,    1,    0,    4,    2,    2 ]
    SOCC [     0,    0,    1,    1,    0,    0,    0,    0 ]

  @DF-UKS Final Energy:  -796.39255975336755

   => Energetics <=

    Nuclear Repulsion Energy =             71.4694156203964468
    One-Electron Energy =               -1241.6953167417736950
    Two-Electron Energy =                 411.3199068255538009
    DFT Exchange-Correlation Energy =     -37.4865577062534499
    Empirical Dispersion Energy =          -0.0000077512904664
    VV10 Nonlocal Energy =                  0.0000000000000000
    Total Energy =                       -796.3925597533675500

  UHF NO Occupations:
  HONO-2 :    2B3u 1.9976679
  HONO-1 :    2B3g 1.0000000
  HONO-0 :    2B2g 1.0000000
  LUNO+0 :    3B3u 0.0023321
  LUNO+1 :    3B2u 0.0023321
  LUNO+2 :    5B1u 0.0006757
  LUNO+3 :    6 Ag 0.0005321


Computation Completed


Properties will be evaluated at   0.000000,   0.000000,   0.000000 [a0]

Properties computed using the SCF density matrix

  Nuclear Dipole Moment: [e a0]
     X:     0.0000      Y:     0.0000      Z:     0.0000

  Electronic Dipole Moment: [e a0]
     X:     0.0000      Y:     0.0000      Z:     0.0000

  Dipole Moment: [e a0]
     X:     0.0000      Y:     0.0000      Z:     0.0000     Total:     0.0000

  Dipole Moment: [D]
     X:     0.0000      Y:     0.0000      Z:     0.0000     Total:     0.0000


*** tstop() called on b1-5.compute.lan at Wed Feb  3 17:11:39 2021
Module time:
	user time   =      14.29 seconds =       0.24 minutes
	system time =       0.04 seconds =       0.00 minutes
	total time  =         14 seconds =       0.23 minutes
Total time:
	user time   =      72.49 seconds =       1.21 minutes
	system time =       0.32 seconds =       0.01 minutes
	total time  =         73 seconds =       1.22 minutes

*** tstart() called on b1-5.compute.lan
*** at Wed Feb  3 17:11:39 2021


         ------------------------------------------------------------
                                   SCF GRAD                          
                          Rob Parrish, Justin Turney,                
                       Andy Simmonett, and Alex Sokolov              
         ------------------------------------------------------------

  ==> Geometry <==

    Molecular point group: d2h
    Full point group: D_inf_h

    Geometry (in Angstrom), charge = 0, multiplicity = 3:

       Center              X                  Y                   Z               Mass       
    ------------   -----------------  -----------------  -----------------  -----------------
         S            0.000000000000     0.000000000000    -0.947743624007    31.972071174400
         S            0.000000000000     0.000000000000     0.947743624007    31.972071174400

  Nuclear repulsion =   71.469415620396447

  ==> Basis Set <==

  Basis Set: AUG-CC-PVTZ
    Blend: AUG-CC-PVTZ
    Number of shells: 32
    Number of basis function: 100
    Number of Cartesian functions: 118
    Spherical Harmonics?: true
    Max angular momentum: 3

  ==> DFJKGrad: Density-Fitted SCF Gradients <==

    Gradient:                    1
    J tasked:                  Yes
    K tasked:                  Yes
    wK tasked:                 Yes
    Omega:               2.000E-01
    OpenMP threads:              1
    Integrals threads:           1
    Memory [MiB]:             7152
    Schwarz Cutoff:          0E+00
    Fitting Condition:       1E-10

   => Auxiliary Basis Set <=

  Basis Set: (AUG-CC-PVTZ AUX)
    Blend: AUG-CC-PVTZ-JKFIT
    Number of shells: 84
    Number of basis function: 292
    Number of Cartesian functions: 360
    Spherical Harmonics?: true
    Max angular momentum: 4

  ==> DFT Potential <==

   => Composite Functional: WB97X-D <= 

    wB97X-D Hyb-GGA Exchange-Correlation Functional

    J.-D. Chai and M. Head-Gordon, Phys. Chem. Chem. Phys. 10, 6615 (2008)

    Deriv               =              1
    GGA                 =           TRUE
    Meta                =          FALSE

    Exchange Hybrid     =           TRUE
    MP2 Hybrid          =          FALSE

   => Exchange-Correlation Functionals <=

    1.0000   wB97D range-separated functional

   => Exact (HF) Exchange <=

    0.7780            HF,LR [omega = 0.2000]
    0.2220               HF 

   => Molecular Quadrature <=

    Radial Scheme          =       TREUTLER
    Pruning Scheme         =           NONE
    Nuclear Scheme         =       TREUTLER

    BS radius alpha        =              1
    Pruning alpha          =              1
    Radial Points          =             99
    Spherical Points       =            590
    Total Points           =         113342
    Total Blocks           =            982
    Max Points             =            256
    Max Functions          =            100
    Weights Tolerance      =       1.00E-15


  -Total Gradient:
     Atom            X                  Y                   Z
    ------   -----------------  -----------------  -----------------
       1        0.000000000000     0.000000000000    -0.001549332118
       2        0.000000000000     0.000000000000     0.001549332118


*** tstop() called on b1-5.compute.lan at Wed Feb  3 17:11:44 2021
Module time:
	user time   =       5.33 seconds =       0.09 minutes
	system time =       0.01 seconds =       0.00 minutes
	total time  =          5 seconds =       0.08 minutes
Total time:
	user time   =      77.82 seconds =       1.30 minutes
	system time =       0.33 seconds =       0.01 minutes
	total time  =         78 seconds =       1.30 minutes

			-----------------------------------------
			 OPTKING 2.0: for geometry optimizations 
			  - R.A. King,  Bethel University        
			-----------------------------------------

	Previous internal coordinate definitions found.
	---Fragment 1 Geometry and Gradient---
[...]
     Au         5       5       0       0       0       0
     B1u       21      21       0       0       0       0
     B2u       12      12       0       0       0       0
     B3u       12      12       0       0       0       0
   -------------------------------------------------------
    Total     100     100      17      15      15       2
   -------------------------------------------------------

  ==> Integral Setup <==

  ==> DiskDFJK: Density-Fitted J/K Matrices <==

    J tasked:                  Yes
    K tasked:                  Yes
    wK tasked:                 Yes
    Omega:               2.000E-01
    OpenMP threads:              1
    Integrals threads:           1
    Memory [MiB]:             6842
    Algorithm:                Core
    Integral Cache:           NONE
    Schwarz Cutoff:          1E-12
    Fitting Condition:       1E-10

   => Auxiliary Basis Set <=

  Basis Set: (AUG-CC-PVTZ AUX)
    Blend: AUG-CC-PVTZ-JKFIT
    Number of shells: 84
    Number of basis function: 292
    Number of Cartesian functions: 360
    Spherical Harmonics?: true
    Max angular momentum: 4

  Cached 100.0% of DFT collocation blocks in 0.303 [GiB].

  Minimum eigenvalue in the overlap matrix is 2.1163773510E-04.
  Using Symmetric Orthogonalization.

  SCF Guess: Superposition of Atomic Densities via on-the-fly atomic UHF.

  ==> Iterations <==

                           Total Energy        Delta E     RMS |[F,P]|

   @DF-UKS iter SAD:  -796.06589814911388   -7.96066e+02   0.00000e+00 
   @DF-UKS iter   1:  -796.37493393483385   -3.09036e-01   6.14054e-03 DIIS
   @DF-UKS iter   2:  -796.39067219477124   -1.57383e-02   2.16859e-03 DIIS
   @DF-UKS iter   3:  -796.39241127182379   -1.73908e-03   2.66053e-04 DIIS
   @DF-UKS iter   4:  -796.39255180202099   -1.40530e-04   9.94065e-05 DIIS
   @DF-UKS iter   5:  -796.39256161963965   -9.81762e-06   1.72266e-05 DIIS
   @DF-UKS iter   6:  -796.39256230273395   -6.83094e-07   2.37054e-06 DIIS
   @DF-UKS iter   7:  -796.39256231725756   -1.45236e-08   3.77877e-07 DIIS
   @DF-UKS iter   8:  -796.39256231759964   -3.42084e-10   5.56841e-08 DIIS
   @DF-UKS iter   9:  -796.39256231760714   -7.50333e-12   7.24524e-09 DIIS
  Energy and wave function converged.


  ==> Post-Iterations <==

   @Spin Contamination Metric:   1.180044155E-02
   @S^2 Expected:                2.000000000E+00
   @S^2 Observed:                2.011800442E+00
   @S   Expected:                1.000000000E+00
   @S   Observed:                1.000000000E+00

    Orbital Energies [Eh]
    ---------------------

    Alpha Occupied:                                                       

       1B1u  -89.110762     1Ag   -89.110756     2Ag    -8.117767  
       2B1u   -8.117576     1B2u   -6.065176     1B3u   -6.065176  
       1B3g   -6.065117     1B2g   -6.065117     3Ag    -6.064521  
       3B1u   -6.063708     4Ag    -0.943859     4B1u   -0.731389  
       5Ag    -0.484203     2B2u   -0.468203     2B3u   -0.468203  
       2B3g   -0.327407     2B2g   -0.327407  

    Alpha Virtual:                                                        

       5B1u    0.039639     6Ag     0.085637     3B3u    0.091526  
       3B2u    0.091526     6B1u    0.094560     7Ag     0.102710  
       3B3g    0.115869     3B2g    0.115869     8Ag     0.188315  
       1B1g    0.188316     7B1u    0.209784     4B2u    0.237533  
       4B3u    0.237533     9Ag     0.279577     8B1u    0.301389  
       1Au     0.301390     4B3g    0.373201     4B2g    0.373201  
       9B1u    0.378107     5B2u    0.450736     5B3u    0.450736  
       6B2u    0.549455     6B3u    0.549455    10Ag     0.555606  
      10B1u    0.560282    11Ag     0.562906     2B1g    0.562909  
      12Ag     0.568186     5B3g    0.578476     5B2g    0.578476  
      11B1u    0.650591     2Au     0.650594    13Ag     0.667399  
       7B2u    0.702597     7B3u    0.702597     6B3g    0.743224  
       6B2g    0.743224     3B1g    0.781237    14Ag     0.781237  
       7B3g    0.857541     7B2g    0.857541    12B1u    0.873812  
       8B2u    1.027960     8B3u    1.027960    13B1u    1.061974  
       3Au     1.061975    14B1u    1.102594     8B3g    1.225180  
       8B2g    1.225180    15Ag     1.311261    15B1u    1.435772  
       4B1g    1.763171    16Ag     1.763177     9B2u    1.803699  
       9B3u    1.803699    16B1u    1.812754     4Au     1.842814  
      17B1u    1.842820    17Ag     1.924677     9B3g    1.935952  
       9B2g    1.935952    18Ag     2.014041     5B1g    2.014050  
      19Ag     2.028110    10B2u    2.035964    10B3u    2.035964  
      11B2u    2.078327    11B3u    2.078327    12B3u    2.082664  
      12B2u    2.082664    10B3g    2.158533    10B2g    2.158533  
      18B1u    2.326285     5Au     2.326297    11B3g    2.360468  
      11B2g    2.360468    19B1u    2.474098    12B3g    2.669716  
      12B2g    2.669716    20Ag     2.683350    20B1u    3.642758  
      21Ag     4.634188    21B1u    5.382918  

    Beta Occupied:                                                        

       1B1u  -89.104853     1Ag   -89.104849     2Ag    -8.111816  
       2B1u   -8.111573     3Ag    -6.060865     3B1u   -6.060043  
       1B2u   -6.052966     1B3u   -6.052966     1B3g   -6.052897  
       1B2g   -6.052897     4Ag    -0.913524     4B1u   -0.667292  
       5Ag    -0.459823     2B2u   -0.410923     2B3u   -0.410923  

    Beta Virtual:                                                         

       2B3g   -0.071747     2B2g   -0.071747     5B1u    0.050730  
       6Ag     0.088003     3B2u    0.096424     3B3u    0.096424  
       7Ag     0.106447     6B1u    0.111576     3B3g    0.129754  
       3B2g    0.129754     8Ag     0.195748     1B1g    0.195748  
       7B1u    0.213567     4B2u    0.253888     4B3u    0.253888  
       9Ag     0.286011     8B1u    0.313151     1Au     0.313151  
       4B3g    0.379313     4B2g    0.379313     9B1u    0.381840  
       5B2u    0.459472     5B3u    0.459472    10Ag     0.562698  
       6B2u    0.566470     6B3u    0.566470    10B1u    0.570312  
      11Ag     0.572088    12Ag     0.585232     2B1g    0.585233  
       5B3g    0.587030     5B2g    0.587030    13Ag     0.679734  
      11B1u    0.688438     2Au     0.688439     7B2u    0.706584  
       7B3u    0.706584     6B3g    0.763791     6B2g    0.763791  
       3B1g    0.791667    14Ag     0.791667     7B3g    0.864491  
       7B2g    0.864491    12B1u    0.887762     8B2u    1.034135  
       8B3u    1.034135    13B1u    1.068532     3Au     1.068532  
      14B1u    1.109750     8B3g    1.239194     8B2g    1.239194  
      15Ag     1.329205    15B1u    1.450994     4B1g    1.792656  
      16Ag     1.792661     9B2u    1.815834     9B3u    1.815834  
      16B1u    1.825316     4Au     1.870262    17B1u    1.870267  
      17Ag     1.929412     9B3g    1.959964     9B2g    1.959964  
      18Ag     2.037051     5B1g    2.037055    19Ag     2.041678  
      10B2u    2.061900    10B3u    2.061900    11B2u    2.107448  
      11B3u    2.107448    12B3u    2.124720    12B2u    2.124720  
      10B3g    2.200747    10B2g    2.200747    18B1u    2.355382  
       5Au     2.355388    11B3g    2.385405    11B2g    2.385405  
      19B1u    2.491782    12B3g    2.692577    12B2g    2.692577  
      20Ag     2.696409    20B1u    3.651465    21Ag     4.653444  
      21B1u    5.397211  

    Final Occupation by Irrep:
             Ag   B1g   B2g   B3g    Au   B1u   B2u   B3u 
    DOCC [     5,    0,    1,    1,    0,    4,    2,    2 ]
    SOCC [     0,    0,    1,    1,    0,    0,    0,    0 ]

  @DF-UKS Final Energy:  -796.39256231760714

   => Energetics <=

    Nuclear Repulsion Energy =             71.5855479814606213
    One-Electron Energy =               -1241.9285316057964792
    Two-Electron Energy =                 411.4381883634587780
    DFT Exchange-Correlation Energy =     -37.4877593805582308
    Empirical Dispersion Energy =          -0.0000076761719593
    VV10 Nonlocal Energy =                  0.0000000000000000
    Total Energy =                       -796.3925623176073714

  UHF NO Occupations:
  HONO-2 :    2B2u 1.9976735
  HONO-1 :    2B3g 1.0000000
  HONO-0 :    2B2g 1.0000000
  LUNO+0 :    3B3u 0.0023265
  LUNO+1 :    3B2u 0.0023265
  LUNO+2 :    5B1u 0.0006763
  LUNO+3 :    6 Ag 0.0005322


Computation Completed


Properties will be evaluated at   0.000000,   0.000000,   0.000000 [a0]

Properties computed using the SCF density matrix

  Nuclear Dipole Moment: [e a0]
     X:     0.0000      Y:     0.0000      Z:     0.0000

  Electronic Dipole Moment: [e a0]
     X:     0.0000      Y:     0.0000      Z:     0.0000

  Dipole Moment: [e a0]
     X:     0.0000      Y:     0.0000      Z:     0.0000     Total:     0.0000

  Dipole Moment: [D]
     X:     0.0000      Y:     0.0000      Z:     0.0000     Total:     0.0000


*** tstop() called on b1-5.compute.lan at Wed Feb  3 17:13:53 2021
Module time:
	user time   =      15.48 seconds =       0.26 minutes
	system time =       0.04 seconds =       0.00 minutes
	total time  =         16 seconds =       0.27 minutes
Total time:
	user time   =     205.54 seconds =       3.43 minutes
	system time =       0.75 seconds =       0.01 minutes
	total time  =        207 seconds =       3.45 minutes

*** tstart() called on b1-5.compute.lan
*** at Wed Feb  3 17:13:53 2021


         ------------------------------------------------------------
                                   SCF GRAD                          
                          Rob Parrish, Justin Turney,                
                       Andy Simmonett, and Alex Sokolov              
         ------------------------------------------------------------

  ==> Geometry <==

    Molecular point group: d2h
    Full point group: D_inf_h

    Geometry (in Angstrom), charge = 0, multiplicity = 3:

       Center              X                  Y                   Z               Mass       
    ------------   -----------------  -----------------  -----------------  -----------------
         S            0.000000000000     0.000000000000    -0.946206111090    31.972071174400
         S            0.000000000000     0.000000000000     0.946206111090    31.972071174400

  Nuclear repulsion =   71.585547981460621

  ==> Basis Set <==

  Basis Set: AUG-CC-PVTZ
    Blend: AUG-CC-PVTZ
    Number of shells: 32
    Number of basis function: 100
    Number of Cartesian functions: 118
    Spherical Harmonics?: true
    Max angular momentum: 3

  ==> DFJKGrad: Density-Fitted SCF Gradients <==

    Gradient:                    1
    J tasked:                  Yes
    K tasked:                  Yes
    wK tasked:                 Yes
    Omega:               2.000E-01
    OpenMP threads:              1
    Integrals threads:           1
    Memory [MiB]:             7152
    Schwarz Cutoff:          0E+00
    Fitting Condition:       1E-10

   => Auxiliary Basis Set <=

  Basis Set: (AUG-CC-PVTZ AUX)
    Blend: AUG-CC-PVTZ-JKFIT
    Number of shells: 84
    Number of basis function: 292
    Number of Cartesian functions: 360
    Spherical Harmonics?: true
    Max angular momentum: 4

  ==> DFT Potential <==

   => Composite Functional: WB97X-D <= 

    wB97X-D Hyb-GGA Exchange-Correlation Functional

    J.-D. Chai and M. Head-Gordon, Phys. Chem. Chem. Phys. 10, 6615 (2008)

    Deriv               =              1
    GGA                 =           TRUE
    Meta                =          FALSE

    Exchange Hybrid     =           TRUE
    MP2 Hybrid          =          FALSE

   => Exchange-Correlation Functionals <=

    1.0000   wB97D range-separated functional

   => Exact (HF) Exchange <=

    0.7780            HF,LR [omega = 0.2000]
    0.2220               HF 

   => Molecular Quadrature <=

    Radial Scheme          =       TREUTLER
    Pruning Scheme         =           NONE
    Nuclear Scheme         =       TREUTLER

    BS radius alpha        =              1
    Pruning alpha          =              1
    Radial Points          =             99
    Spherical Points       =            590
    Total Points           =         113350
    Total Blocks           =            980
    Max Points             =            256
    Max Functions          =            100
    Weights Tolerance      =       1.00E-15


  -Total Gradient:
     Atom            X                  Y                   Z
    ------   -----------------  -----------------  -----------------
       1        0.000000000000     0.000000000000     0.000428106101
       2        0.000000000000     0.000000000000    -0.000428106101


*** tstop() called on b1-5.compute.lan at Wed Feb  3 17:13:57 2021
Module time:
	user time   =       4.57 seconds =       0.08 minutes
	system time =       0.02 seconds =       0.00 minutes
	total time  =          4 seconds =       0.07 minutes
Total time:
	user time   =     210.12 seconds =       3.50 minutes
	system time =       0.77 seconds =       0.01 minutes
	total time  =        211 seconds =       3.52 minutes

         ----------------------------------------------------------
                                   FINDIF
                     R. A. King and Jonathon Misiewicz
         ---------------------------------------------------------

  Computing second-derivative from gradients using projected, 
  symmetry-adapted, cartesian coordinates.

  3 gradients passed in, including the reference geometry.
  Generating complete list of displacements from unique ones.


-------------------------------------------------------------


  ==> Harmonic Vibrational Analysis <==

  non-mass-weighted Hessian:       Symmetric? True   Hermitian? True   Lin Dep Dim?  5 (0)
  projection of translations (True) and rotations (True) removed 5 degrees of freedom (5)
  total projector:                 Symmetric? True   Hermitian? True   Lin Dep Dim?  5 (5)
  mass-weighted Hessian:           Symmetric? True   Hermitian? True   Lin Dep Dim?  5 (0)
  pre-proj  low-frequency mode:    0.0000  [cm^-1]
  pre-proj  low-frequency mode:    0.0000  [cm^-1]
  pre-proj  low-frequency mode:    0.0000  [cm^-1]
  pre-proj  low-frequency mode:    0.0000  [cm^-1]
  pre-proj  low-frequency mode:    0.0000  [cm^-1]
  pre-proj  all modes:['0.0000' '0.0000' '0.0000' '0.0000' '0.0000' '751.5975']
  projected mass-weighted Hessian: Symmetric? True   Hermitian? True   Lin Dep Dim?  5 (5)
  post-proj low-frequency mode:    0.0000i [cm^-1] (TR)
  post-proj low-frequency mode:    0.0000  [cm^-1] (TR)
  post-proj low-frequency mode:    0.0000  [cm^-1] (TR)
  post-proj low-frequency mode:    0.0000  [cm^-1] (TR)
  post-proj low-frequency mode:    0.0000  [cm^-1] (TR)
  post-proj  all modes:['0.0000i' '0.0000' '0.0000' '0.0000' '0.0000' '751.5975']

  Vibration                       6           
  Freq [cm^-1]                 751.5975       
  Irrep                           Ag          
  Reduced mass [u]             31.9721        
  Force const [mDyne/A]        10.6412        
  Turning point v=0 [a0]        0.0708        
  RMS dev v=0 [a0 u^1/2]        0.2830        
  Char temp [K]               1081.3814       
  ----------------------------------------------------------------------------------
      1   S                0.00  0.00  0.71   
      2   S                0.00  0.00 -0.71   

  ==> Thermochemistry Components <==

  Entropy, S
    Electronic S            2.183 [cal/(mol K)]        9.134 [J/(mol K)]       0.00347910 [mEh/K] (multiplicity = 3)
    Translational S        38.385 [cal/(mol K)]      160.603 [J/(mol K)]       0.06117054 [mEh/K] (mol. weight = 63.9441 [u], P = 101325.00 [Pa])
    Rotational S           13.640 [cal/(mol K)]       57.070 [J/(mol K)]       0.02173690 [mEh/K] (symmetry no. = 2)
    Vibrational S           0.251 [cal/(mol K)]        1.048 [J/(mol K)]       0.00039920 [mEh/K]
  Total S                  54.459 [cal/(mol K)]      227.856 [J/(mol K)]       0.08678574 [mEh/K]
  Correction S              0.000 [cal/(mol K)]        0.000 [J/(mol K)]       0.00000000 [mEh/K]

  Constant volume heat capacity, Cv
    Electronic Cv           0.000 [cal/(mol K)]        0.000 [J/(mol K)]       0.00000000 [mEh/K]
    Translational Cv        2.981 [cal/(mol K)]       12.472 [J/(mol K)]       0.00475022 [mEh/K]
    Rotational Cv           1.987 [cal/(mol K)]        8.314 [J/(mol K)]       0.00316681 [mEh/K]
    Vibrational Cv          0.734 [cal/(mol K)]        3.070 [J/(mol K)]       0.00116937 [mEh/K]
  Total Cv                  5.702 [cal/(mol K)]       23.856 [J/(mol K)]       0.00908639 [mEh/K]
  Correction Cv             0.000 [cal/(mol K)]        0.000 [J/(mol K)]       0.00000000 [mEh/K]

  Constant pressure heat capacity, Cp
    Electronic Cp           0.000 [cal/(mol K)]        0.000 [J/(mol K)]       0.00000000 [mEh/K]
    Translational Cp        4.968 [cal/(mol K)]       20.786 [J/(mol K)]       0.00791703 [mEh/K]
    Rotational Cp           1.987 [cal/(mol K)]        8.314 [J/(mol K)]       0.00316681 [mEh/K]
    Vibrational Cp          0.734 [cal/(mol K)]        3.070 [J/(mol K)]       0.00116937 [mEh/K]
  Total Cp                  7.689 [cal/(mol K)]       32.171 [J/(mol K)]       0.01225320 [mEh/K]
  Correction Cp             0.000 [cal/(mol K)]        0.000 [J/(mol K)]       0.00000000 [mEh/K]

  ==> Thermochemistry Energy Analysis <==

  Raw electronic energy, E0
  Total E0, Electronic energy at well bottom at 0 [K]                 -796.39256274 [Eh]

  Zero-point energy, ZPE_vib = Sum_i nu_i / 2
    Electronic ZPE          0.000 [kcal/mol]        0.000 [kJ/mol]       0.00000000 [Eh]
    Translational ZPE       0.000 [kcal/mol]        0.000 [kJ/mol]       0.00000000 [Eh]
    Rotational ZPE          0.000 [kcal/mol]        0.000 [kJ/mol]       0.00000000 [Eh]
    Vibrational ZPE         1.074 [kcal/mol]        4.496 [kJ/mol]       0.00171227 [Eh]         375.799 [cm^-1]
  Correction ZPE            1.074 [kcal/mol]        4.496 [kJ/mol]       0.00171227 [Eh]         375.799 [cm^-1]
  Total ZPE, Electronic energy at 0 [K]                               -796.39085048 [Eh]

  Thermal Energy, E (includes ZPE)
    Electronic E            0.000 [kcal/mol]        0.000 [kJ/mol]       0.00000000 [Eh]
    Translational E         0.889 [kcal/mol]        3.718 [kJ/mol]       0.00141628 [Eh]
    Rotational E            0.592 [kcal/mol]        2.479 [kJ/mol]       0.00094418 [Eh]
    Vibrational E           1.133 [kcal/mol]        4.741 [kJ/mol]       0.00180583 [Eh]
  Correction E              2.614 [kcal/mol]       10.939 [kJ/mol]       0.00416630 [Eh]
  Total E, Electronic energy at  298.15 [K]                           -796.38839645 [Eh]

  Enthalpy, H_trans = E_trans + k_B * T
    Electronic H            0.000 [kcal/mol]        0.000 [kJ/mol]       0.00000000 [Eh]
    Translational H         1.481 [kcal/mol]        6.197 [kJ/mol]       0.00236046 [Eh]
    Rotational H            0.592 [kcal/mol]        2.479 [kJ/mol]       0.00094418 [Eh]
    Vibrational H           1.133 [kcal/mol]        4.741 [kJ/mol]       0.00180583 [Eh]
  Correction H              3.207 [kcal/mol]       13.418 [kJ/mol]       0.00511048 [Eh]
  Total H, Enthalpy at  298.15 [K]                                    -796.38745226 [Eh]

  Gibbs free energy, G = H - T * S
    Electronic G           -0.651 [kcal/mol]       -2.723 [kJ/mol]      -0.00103729 [Eh]
    Translational G        -9.963 [kcal/mol]      -41.686 [kJ/mol]      -0.01587754 [Eh]
    Rotational G           -3.474 [kcal/mol]      -14.537 [kJ/mol]      -0.00553667 [Eh]
    Vibrational G           1.058 [kcal/mol]        4.429 [kJ/mol]       0.00168681 [Eh]
  Correction G            -13.030 [kcal/mol]      -54.518 [kJ/mol]      -0.02076469 [Eh]
  Total G, Free enthalpy at  298.15 [K]                               -796.41332743 [Eh]

    Psi4 stopped on: Wednesday, 03 February 2021 05:13PM
    Psi4 wall time for execution: 0:03:31.32

*** Psi4 exiting successfully. Buy a developer a beer!
