
    -----------------------------------------------------------------------
          Psi4: An Open-Source Ab Initio Electronic Structure Package
                               Psi4 1.4a2.dev191 

                         Git: Rev {master} 0ab5346 


    R. M. Parrish, L. A. Burns, D. G. A. Smith, A. C. Simmonett,
    A. E. DePrince III, E. G. Hohenstein, U. Bozkaya, A. Yu. Sokolov,
    R. Di Remigio, R. M. Richard, J. F. Gonthier, A. M. James,
    H. R. McAlexander, A. Kumar, M. Saitow, X. Wang, B. P. Pritchard,
    P. Verma, H. F. Schaefer III, K. Patkowski, R. A. King, E. F. Valeev,
    F. A. Evangelista, J. M. Turney, T. D. Crawford, and C. D. Sherrill,
    J. Chem. Theory Comput. 13(7) pp 3185--3197 (2017).
    (doi: 10.1021/acs.jctc.7b00174)


                         Additional Contributions by
    P. Kraus, H. Kruse, M. H. Lechner, M. C. Schieber, R. A. Shaw,
    A. Alenaizan, R. Galvelis, Z. L. Glick, S. Lehtola, and J. P. Misiewicz

    -----------------------------------------------------------------------


    Psi4 started on: Tuesday, 02 February 2021 02:39PM

    Process ID: 108094
    Host:       c2-18.compute.lan
    PSIDATADIR: /apps/gb/PSI4/1.4.0/share/psi4
    Memory:     500.0 MiB
    Threads:    1
    
  ==> Input File <==

--------------------------------------------------------------------------
memory 10 GB

molecule  {
-2 1
S
S 1 r1
S 1 r2 2 a1
r1 = 2.0
r2 = 2.1
a1 = 120.0
}

set {
reference uks
basis aug-cc-pvtz
g_convergence gau_verytight
dft_spherical_points 590
dft_radial_points 99
}

optimize('wb97x-d')
frequencies('wb97x-d')

--------------------------------------------------------------------------

  Memory set to   9.313 GiB by Python driver.
gradient() will perform analytic gradient computation.

*** tstart() called on c2-18.compute.lan
*** at Tue Feb  2 14:39:46 2021

   => Loading Basis Set <=

    Name: AUG-CC-PVTZ
    Role: ORBITAL
    Keyword: BASIS
    atoms 1-3 entry S          line   906 file /apps/gb/PSI4/1.4.0/share/psi4/basis/aug-cc-pvtz.gbs 

   => WB97X-D: Empirical Dispersion <=

    Chai and Head-Gordon Dispersion Correction
    Chai, J.-D.; Head-Gordon, M. (2010), J. Chem. Phys., 132: 6615-6620

        s6 =       1.000000


         ---------------------------------------------------------
                                   SCF
               by Justin Turney, Rob Parrish, Andy Simmonett
                          and Daniel G. A. Smith
                              UKS Reference
                        1 Threads,   9536 MiB Core
         ---------------------------------------------------------

  ==> Geometry <==

    Molecular point group: cs
    Full point group: Cs

    Geometry (in Angstrom), charge = -2, multiplicity = 1:

       Center              X                  Y                   Z               Mass       
    ------------   -----------------  -----------------  -----------------  -----------------
         S            0.606217782649     0.316666666667     0.000000000000    31.972071174400
         S            0.606217782649    -1.683333333333     0.000000000000    31.972071174400
         S           -1.212435565298     1.366666666667     0.000000000000    31.972071174400

  Running in cs symmetry.

  Rotational constants: A =      0.75413  B =      0.08359  C =      0.07525 [cm^-1]
  Rotational constants: A =  22608.14975  B =   2506.04720  C =   2255.97858 [MHz]
  Nuclear repulsion =  170.392939668640480

  Charge       = -2
  Multiplicity = 1
  Electrons    = 50
  Nalpha       = 25
  Nbeta        = 25

  ==> Algorithm <==

  SCF Algorithm Type is DF.
  DIIS enabled.
  MOM disabled.
  Fractional occupation disabled.
  Guess Type is SAD.
  Energy threshold   = 1.00e-08
  Density threshold  = 1.00e-08
  Integral threshold = 0.00e+00

  ==> Primary Basis <==

  Basis Set: AUG-CC-PVTZ
    Blend: AUG-CC-PVTZ
    Number of shells: 48
    Number of basis function: 150
    Number of Cartesian functions: 177
    Spherical Harmonics?: true
    Max angular momentum: 3

  ==> DFT Potential <==

   => Composite Functional: WB97X-D <= 

    wB97X-D Hyb-GGA Exchange-Correlation Functional

    J.-D. Chai and M. Head-Gordon, Phys. Chem. Chem. Phys. 10, 6615 (2008)

    Deriv               =              1
    GGA                 =           TRUE
    Meta                =          FALSE

    Exchange Hybrid     =           TRUE
    MP2 Hybrid          =          FALSE

   => Exchange-Correlation Functionals <=

    1.0000   wB97D range-separated functional

   => Exact (HF) Exchange <=

    0.7780            HF,LR [omega = 0.2000]
    0.2220               HF 

   => Molecular Quadrature <=

    Radial Scheme          =       TREUTLER
    Pruning Scheme         =           NONE
    Nuclear Scheme         =       TREUTLER

    BS radius alpha        =              1
    Pruning alpha          =              1
    Radial Points          =             99
    Spherical Points       =            590
    Total Points           =         169927
    Total Blocks           =           1392
    Max Points             =            256
    Max Functions          =            150
    Weights Tolerance      =       1.00E-15

   => Loading Basis Set <=

    Name: (AUG-CC-PVTZ AUX)
    Role: JKFIT
    Keyword: DF_BASIS_SCF
    atoms 1-3 entry S          line   730 file /apps/gb/PSI4/1.4.0/share/psi4/basis/aug-cc-pvtz-jkfit.gbs 

  ==> Pre-Iterations <==

   -------------------------------------------------------
    Irrep   Nso     Nmo     Nalpha   Nbeta   Ndocc  Nsocc
   -------------------------------------------------------
     A'        99      99       0       0       0       0
     A"        51      51       0       0       0       0
   -------------------------------------------------------
    Total     150     150      25      25      25       0
   -------------------------------------------------------

  ==> Integral Setup <==

  ==> DiskDFJK: Density-Fitted J/K Matrices <==

    J tasked:                  Yes
    K tasked:                  Yes
    wK tasked:                 Yes
    Omega:               2.000E-01
    OpenMP threads:              1
    Integrals threads:           1
    Memory [MiB]:             6486
    Algorithm:                Core
    Integral Cache:           NONE
    Schwarz Cutoff:          1E-12
    Fitting Condition:       1E-10

   => Auxiliary Basis Set <=

  Basis Set: (AUG-CC-PVTZ AUX)
    Blend: AUG-CC-PVTZ-JKFIT
    Number of shells: 126
    Number of basis function: 438
    Number of Cartesian functions: 540
    Spherical Harmonics?: true
    Max angular momentum: 4

  Cached 100.0% of DFT collocation blocks in 0.650 [GiB].

  Minimum eigenvalue in the overlap matrix is 2.2915518432E-04.
  Using Symmetric Orthogonalization.

  SCF Guess: Superposition of Atomic Densities via on-the-fly atomic UHF.

  ==> Iterations <==

                           Total Energy        Delta E     RMS |[F,P]|

   @DF-UKS iter SAD: -1194.07218588701244   -1.19407e+03   0.00000e+00 
   @DF-UKS iter   1: -1194.37223323232342   -3.00047e-01   5.04176e-03 DIIS
   @DF-UKS iter   2: -1194.48278327759908   -1.10550e-01   3.94910e-03 DIIS
   @DF-UKS iter   3: -1194.57411942808812   -9.13362e-02   4.13150e-04 DIIS
   @DF-UKS iter   4: -1194.57563142985350   -1.51200e-03   1.53170e-04 DIIS
   @DF-UKS iter   5: -1194.57590302244489   -2.71593e-04   6.85529e-05 DIIS
   @DF-UKS iter   6: -1194.57595275439962   -4.97320e-05   2.53969e-05 DIIS
   @DF-UKS iter   7: -1194.57596292565495   -1.01713e-05   8.00251e-06 DIIS
   @DF-UKS iter   8: -1194.57596491002846   -1.98437e-06   3.29236e-06 DIIS
   @DF-UKS iter   9: -1194.57596545429169   -5.44263e-07   1.10838e-06 DIIS
   @DF-UKS iter  10: -1194.57596551843039   -6.41387e-08   6.86340e-07 DIIS
   @DF-UKS iter  11: -1194.57596552879772   -1.03673e-08   1.96613e-07 DIIS
   @DF-UKS iter  12: -1194.57596553025792   -1.46019e-09   5.09288e-08 DIIS
   @DF-UKS iter  13: -1194.57596553041208   -1.54159e-10   1.83078e-08 DIIS
   @DF-UKS iter  14: -1194.57596553042322   -1.11413e-11   8.47410e-09 DIIS
  Energy and wave function converged.


  ==> Post-Iterations <==

   @Spin Contamination Metric:  -2.842170943E-14
   @S^2 Expected:                0.000000000E+00
   @S^2 Observed:               -2.842170943E-14
   @S   Expected:                0.000000000E+00
   @S   Observed:                0.000000000E+00

    Orbital Energies [Eh]
    ---------------------

    Alpha Occupied:                                                       

       1Ap   -88.721871     2Ap   -88.670982     3Ap   -88.669062  
       4Ap    -7.726135     5Ap    -7.679197     6Ap    -7.675780  
       7Ap    -5.676652     8Ap    -5.672706     1App   -5.666090  
       9Ap    -5.630006    10Ap    -5.626885    11Ap    -5.622523  
       2App   -5.621572    12Ap    -5.618969     3App   -5.618292  
      13Ap    -0.526822    14Ap    -0.409176    15Ap    -0.285022  
      16Ap    -0.095975    17Ap    -0.069880     4App   -0.057371  
       5App    0.032963    18Ap     0.044027    19Ap     0.049873  
       6App    0.107735  

    Alpha Virtual:                                                        

      20Ap     0.272759    21Ap     0.280480    22Ap     0.324492  
      23Ap     0.341468     7App    0.343720    24Ap     0.347563  
       8App    0.352903     9App    0.366817    25Ap     0.367553  
      26Ap     0.390845    27Ap     0.405226    28Ap     0.434541  
      29Ap     0.478497    30Ap     0.493984    10App    0.526283  
      31Ap     0.543517    11App    0.553824    32Ap     0.583256  
      33Ap     0.596342    34Ap     0.601539    12App    0.618273  
      13App    0.620075    35Ap     0.621680    14App    0.657610  
      36Ap     0.659944    37Ap     0.668028    38Ap     0.689801  
      15App    0.709386    39Ap     0.736361    16App    0.801761  
      40Ap     0.820183    17App    0.874421    41Ap     0.878737  
      42Ap     0.888970    43Ap     0.892621    44Ap     0.912380  
      18App    0.919350    19App    0.920354    45Ap     0.929422  
      46Ap     0.934966    20App    0.938286    47Ap     0.976853  
      48Ap     0.994304    21App    0.996531    49Ap     1.003405  
      22App    1.012168    50Ap     1.018976    51Ap     1.039304  
      52Ap     1.060380    23App    1.060602    53Ap     1.104185  
      24App    1.104219    25App    1.126715    54Ap     1.154488  
      26App    1.157262    55Ap     1.160443    27App    1.177642  
      56Ap     1.205410    57Ap     1.222647    58Ap     1.226620  
      59Ap     1.303540    28App    1.313346    29App    1.356640  
      60Ap     1.383966    30App    1.418448    61Ap     1.423319  
      62Ap     1.490391    31App    1.492182    63Ap     1.503782  
      64Ap     1.542619    65Ap     1.560801    32App    1.586410  
      33App    1.596309    66Ap     1.695129    67Ap     1.699978  
      68Ap     1.773452    69Ap     1.889739    70Ap     2.190988  
      34App    2.206536    35App    2.223024    71Ap     2.231189  
      36App    2.261547    72Ap     2.264989    73Ap     2.271728  
      37App    2.276844    74Ap     2.300276    75Ap     2.347867  
      38App    2.351536    76Ap     2.372470    77Ap     2.389009  
      39App    2.404695    78Ap     2.404723    40App    2.415501  
      79Ap     2.430214    41App    2.432161    42App    2.459876  
      80Ap     2.464020    43App    2.484259    81Ap     2.512370  
      82Ap     2.532801    44App    2.556065    83Ap     2.559162  
      45App    2.566932    84Ap     2.572617    46App    2.636642  
      85Ap     2.648888    47App    2.655636    86Ap     2.663892  
      87Ap     2.681243    48App    2.694696    49App    2.740466  
      88Ap     2.776188    89Ap     2.791022    90Ap     2.838689  
      91Ap     2.855418    92Ap     2.890644    50App    2.938426  
      93Ap     2.947119    51App    3.008704    94Ap     3.105584  
      95Ap     3.987616    96Ap     4.092047    97Ap     5.142055  
      98Ap     5.547126    99Ap     6.016239  

    Beta Occupied:                                                        

       1Ap   -88.721871     2Ap   -88.670982     3Ap   -88.669062  
       4Ap    -7.726135     5Ap    -7.679197     6Ap    -7.675780  
       7Ap    -5.676652     8Ap    -5.672706     1App   -5.666090  
       9Ap    -5.630006    10Ap    -5.626885    11Ap    -5.622523  
       2App   -5.621572    12Ap    -5.618969     3App   -5.618292  
      13Ap    -0.526822    14Ap    -0.409176    15Ap    -0.285022  
      16Ap    -0.095975    17Ap    -0.069880     4App   -0.057371  
       5App    0.032963    18Ap     0.044027    19Ap     0.049873  
       6App    0.107735  

    Beta Virtual:                                                         

      20Ap     0.272759    21Ap     0.280480    22Ap     0.324492  
      23Ap     0.341468     7App    0.343720    24Ap     0.347563  
       8App    0.352903     9App    0.366817    25Ap     0.367553  
      26Ap     0.390845    27Ap     0.405226    28Ap     0.434541  
      29Ap     0.478497    30Ap     0.493984    10App    0.526283  
      31Ap     0.543517    11App    0.553824    32Ap     0.583256  
      33Ap     0.596342    34Ap     0.601539    12App    0.618273  
      13App    0.620075    35Ap     0.621680    14App    0.657610  
      36Ap     0.659944    37Ap     0.668028    38Ap     0.689801  
      15App    0.709386    39Ap     0.736361    16App    0.801761  
      40Ap     0.820183    17App    0.874421    41Ap     0.878737  
      42Ap     0.888970    43Ap     0.892621    44Ap     0.912380  
      18App    0.919350    19App    0.920354    45Ap     0.929422  
      46Ap     0.934966    20App    0.938286    47Ap     0.976853  
      48Ap     0.994304    21App    0.996531    49Ap     1.003405  
      22App    1.012168    50Ap     1.018976    51Ap     1.039304  
      52Ap     1.060380    23App    1.060602    53Ap     1.104185  
      24App    1.104219    25App    1.126715    54Ap     1.154488  
      26App    1.157262    55Ap     1.160443    27App    1.177642  
      56Ap     1.205410    57Ap     1.222647    58Ap     1.226620  
      59Ap     1.303540    28App    1.313346    29App    1.356640  
      60Ap     1.383966    30App    1.418448    61Ap     1.423319  
      62Ap     1.490391    31App    1.492182    63Ap     1.503782  
      64Ap     1.542619    65Ap     1.560801    32App    1.586410  
      33App    1.596309    66Ap     1.695129    67Ap     1.699978  
      68Ap     1.773452    69Ap     1.889739    70Ap     2.190988  
      34App    2.206536    35App    2.223024    71Ap     2.231189  
      36App    2.261547    72Ap     2.264989    73Ap     2.271728  
      37App    2.276844    74Ap     2.300276    75Ap     2.347867  
      38App    2.351536    76Ap     2.372470    77Ap     2.389009  
      39App    2.404695    78Ap     2.404723    40App    2.415501  
      79Ap     2.430214    41App    2.432161    42App    2.459876  
      80Ap     2.464020    43App    2.484259    81Ap     2.512370  
      82Ap     2.532801    44App    2.556065    83Ap     2.559162  
      45App    2.566932    84Ap     2.572617    46App    2.636642  
      85Ap     2.648888    47App    2.655636    86Ap     2.663892  
      87Ap     2.681243    48App    2.694696    49App    2.740466  
      88Ap     2.776188    89Ap     2.791022    90Ap     2.838689  
      91Ap     2.855418    92Ap     2.890644    50App    2.938426  
      93Ap     2.947119    51App    3.008704    94Ap     3.105584  
      95Ap     3.987616    96Ap     4.092047    97Ap     5.142055  
      98Ap     5.547126    99Ap     6.016239  

    Final Occupation by Irrep:
             Ap   App 
    DOCC [    19,    6 ]
    SOCC [     0,    0 ]

  @DF-UKS Final Energy: -1194.57596553042322

   => Energetics <=

    Nuclear Repulsion Energy =            170.3929396686404800
    One-Electron Energy =               -2008.9077150386926860
    Two-Electron Energy =                 700.3817905563533941
    DFT Exchange-Correlation Energy =     -56.4427011568520385
    Empirical Dispersion Energy =          -0.0002795598724586
    VV10 Nonlocal Energy =                  0.0000000000000000
    Total Energy =                      -1194.5759655304234457

  UHF NO Occupations:
  HONO-2 :   17 Ap 2.0000000
  HONO-1 :   18 Ap 2.0000000
  HONO-0 :   19 Ap 2.0000000
  LUNO+0 :   20 Ap 0.0000000
  LUNO+1 :   21 Ap 0.0000000
  LUNO+2 :   22 Ap 0.0000000
  LUNO+3 :    7App 0.0000000


Computation Completed


Properties will be evaluated at   0.000000,   0.000000,   0.000000 [a0]

Properties computed using the SCF density matrix

  Nuclear Dipole Moment: [e a0]
     X:     0.0000      Y:    -0.0000      Z:     0.0000

  Electronic Dipole Moment: [e a0]
     X:     0.7282      Y:     0.2288      Z:     0.0000

  Dipole Moment: [e a0]
     X:     0.7282      Y:     0.2288      Z:     0.0000     Total:     0.7633

  Dipole Moment: [D]
     X:     1.8509      Y:     0.5814      Z:     0.0000     Total:     1.9401


*** tstop() called on c2-18.compute.lan at Tue Feb  2 14:44:21 2021
Module time:
	user time   =      89.34 seconds =       1.49 minutes
	system time =      60.25 seconds =       1.00 minutes
	total time  =        275 seconds =       4.58 minutes
Total time:
	user time   =      89.34 seconds =       1.49 minutes
	system time =      60.25 seconds =       1.00 minutes
	total time  =        275 seconds =       4.58 minutes

*** tstart() called on c2-18.compute.lan
*** at Tue Feb  2 14:44:21 2021


         ------------------------------------------------------------
                                   SCF GRAD                          
                          Rob Parrish, Justin Turney,                
                       Andy Simmonett, and Alex Sokolov              
         ------------------------------------------------------------

  ==> Geometry <==

    Molecular point group: cs
    Full point group: Cs

    Geometry (in Angstrom), charge = -2, multiplicity = 1:

       Center              X                  Y                   Z               Mass       
    ------------   -----------------  -----------------  -----------------  -----------------
         S            0.606217782649     0.316666666667     0.000000000000    31.972071174400
         S            0.606217782649    -1.683333333333     0.000000000000    31.972071174400
         S           -1.212435565298     1.366666666667     0.000000000000    31.972071174400

  Nuclear repulsion =  170.392939668640480

  ==> Basis Set <==

  Basis Set: AUG-CC-PVTZ
    Blend: AUG-CC-PVTZ
    Number of shells: 48
    Number of basis function: 150
    Number of Cartesian functions: 177
    Spherical Harmonics?: true
    Max angular momentum: 3

  ==> DFJKGrad: Density-Fitted SCF Gradients <==

    Gradient:                    1
    J tasked:                  Yes
    K tasked:                  Yes
    wK tasked:                 Yes
    Omega:               2.000E-01
    OpenMP threads:              1
    Integrals threads:           1
    Memory [MiB]:             7152
    Schwarz Cutoff:          0E+00
    Fitting Condition:       1E-10

   => Auxiliary Basis Set <=

  Basis Set: (AUG-CC-PVTZ AUX)
    Blend: AUG-CC-PVTZ-JKFIT
    Number of shells: 126
    Number of basis function: 438
    Number of Cartesian functions: 540
    Spherical Harmonics?: true
    Max angular momentum: 4

  ==> DFT Potential <==

   => Composite Functional: WB97X-D <= 

    wB97X-D Hyb-GGA Exchange-Correlation Functional

    J.-D. Chai and M. Head-Gordon, Phys. Chem. Chem. Phys. 10, 6615 (2008)

    Deriv               =              1
    GGA                 =           TRUE
    Meta                =          FALSE

    Exchange Hybrid     =           TRUE
    MP2 Hybrid          =          FALSE

   => Exchange-Correlation Functionals <=

    1.0000   wB97D range-separated functional

   => Exact (HF) Exchange <=

    0.7780            HF,LR [omega = 0.2000]
    0.2220               HF 

   => Molecular Quadrature <=

    Radial Scheme          =       TREUTLER
    Pruning Scheme         =           NONE
    Nuclear Scheme         =       TREUTLER

    BS radius alpha        =              1
    Pruning alpha          =              1
    Radial Points          =             99
    Spherical Points       =            590
    Total Points           =         169927
    Total Blocks           =           1392
    Max Points             =            256
    Max Functions          =            150
    Weights Tolerance      =       1.00E-15


  -Total Gradient:
     Atom            X                  Y                   Z
    ------   -----------------  -----------------  -----------------
       1       -0.015970100288    -0.037474451791     0.000000000000
       2        0.006785677036     0.035341574148     0.000000000000
       3        0.009195365447     0.002144858111     0.000000000000


*** tstop() called on c2-18.compute.lan at Tue Feb  2 14:44:49 2021
Module time:
	user time   =      19.41 seconds =       0.32 minutes
	system time =       0.21 seconds =       0.00 minutes
	total time  =         28 seconds =       0.47 minutes
Total time:
	user time   =     108.75 seconds =       1.81 minutes
	system time =      60.46 seconds =       1.01 minutes
	total time  =        303 seconds =       5.05 minutes

			-----------------------------------------
			 OPTKING 2.0: for geometry optimizations 
			  - R.A. King,  Bethel University        
			-----------------------------------------

	Internal coordinates to be generated automatically.
	Detected frag 1 with atoms:  1 2 3
	---Fragment 1 Bond Connectivity---
	 1 : 2 3
	 2 : 1
	 3 : 1

	---Fragment 1 Geometry and Gradient---
	 S           1.1455855816        0.5984132731        0.0000000000
	 S           1.1455855816       -3.1810389779        0.0000000000
	 S          -2.2911711632        2.5826257048        0.0000000000
	            -0.0159701003       -0.0374744518        0.0000000000
	             0.0067856770        0.0353415741        0.0000000000
	             0.0091953654        0.0021448581        0.0000000000

	Previous optimization step data not found.  Starting new optimization.

	---Fragment 1 Intrafragment Coordinates---
	 - Coordinate -           - BOHR/RAD -       - ANG/DEG -
	 R(1,2)           =         3.779452	       2.000000
	 R(1,3)           =         3.968425	       2.100000
	 B(2,1,3)         =         2.094395	     120.000000

	Current energy   :     -1194.5759655304

	Generating empirical Hessian (Schlegel '84) for each fragment.
	Taking RFO optimization step.
	Going to follow RFO solution 1.
	Using RFO vector 1.
	Norm of target step-size    0.14410
	Projected energy change by RFO approximation:        -0.0058138950

	Back-transformation to cartesian coordinates...
	Successfully converged to displaced geometry.

	--- Internal Coordinate Step in ANG or DEG, aJ/ANG or AJ/DEG ---
	 ---------------------------------------------------------------------------
	   Coordinate                Previous        Force       Change         New 
	   ----------                --------       ------       ------       ------
	    1 R(1,2)          =      2.000000     0.291123     0.053093     2.053093
	    2 R(1,3)          =      2.100000     0.056776     0.014084     2.114084
	    3 B(2,1,3)        =    120.000000    -0.001949    -5.726445   114.273555
	 ---------------------------------------------------------------------------
	Successfully symmetrized geometry.

  ==> Convergence Check <==

  Measures of convergence in internal coordinates in au.
  Criteria marked as inactive (o), active & met (*), and active & unmet ( ).
  --------------------------------------------------------------------------------------------- ~
   Step     Total Energy     Delta E     MAX Force     RMS Force      MAX Disp      RMS Disp    ~
  --------------------------------------------------------------------------------------------- ~
    Convergence Criteria             o    2.00e-06 *    1.00e-06 *    6.00e-06 *    4.00e-06 *  ~
  --------------------------------------------------------------------------------------------- ~
      1   -1194.57596553   -1.19e+03 o    3.53e-02      2.55e-02      1.00e-01      8.32e-02    ~
  ---------------------------------------------------------------------------------------------

	Writing optimization data to binary file.
	Structure for next step:
	Cartesian Geometry (in Angstrom)
	    S     0.6606000418   0.3633761666   0.0000000000
	    S     0.5620429881  -1.6873499533   0.0000000000
	    S    -1.2226430300   1.3239737867   0.0000000000
			--------------------------
			 OPTKING Finished Execution 
			--------------------------

    Structure for next step:
    Molecular point group: cs
    Full point group: Cs

    Geometry (in Angstrom), charge = -2, multiplicity = 1:

    S       
    S             1          r1
    S             1          r2      2          a1

    a1        =  114.2735553726
    r1        =    2.0530930677
    r2        =    2.1140842676

gradient() will perform analytic gradient computation.

*** tstart() called on c2-18.compute.lan
*** at Tue Feb  2 14:44:49 2021

   => Loading Basis Set <=

    Name: AUG-CC-PVTZ
    Role: ORBITAL
    Keyword: BASIS
    atoms 1-3 entry S          line   906 file /apps/gb/PSI4/1.4.0/share/psi4/basis/aug-cc-pvtz.gbs 

   => WB97X-D: Empirical Dispersion <=

    Chai and Head-Gordon Dispersion Correction
    Chai, J.-D.; Head-Gordon, M. (2010), J. Chem. Phys., 132: 6615-6620

        s6 =       1.000000


         ---------------------------------------------------------
                                   SCF
               by Justin Turney, Rob Parrish, Andy Simmonett
                          and Daniel G. A. Smith
                              UKS Reference
                        1 Threads,   9536 MiB Core
         ---------------------------------------------------------

  ==> Geometry <==

    Molecular point group: cs
    Full point group: Cs

    Geometry (in Angstrom), charge = -2, multiplicity = 1:

       Center              X                  Y                   Z               Mass       
    ------------   -----------------  -----------------  -----------------  -----------------
         S            0.642394885715     0.394668809222     0.000000000000    31.972071174400
         S            0.642394885715    -1.658424258450     0.000000000000    31.972071174400
         S           -1.284789771429     1.263755449228     0.000000000000    31.972071174400

  Running in cs symmetry.

  Rotational constants: A =      0.61912  B =      0.08605  C =      0.07555 [cm^-1]
  Rotational constants: A =  18560.71595  B =   2579.61833  C =   2264.84418 [MHz]
  Nuclear repulsion =  168.763033821963973

  Charge       = -2
  Multiplicity = 1
  Electrons    = 50
  Nalpha       = 25
  Nbeta        = 25

  ==> Algorithm <==

  SCF Algorithm Type is DF.
  DIIS enabled.
  MOM disabled.
  Fractional occupation disabled.
  Guess Type is READ.
  Energy threshold   = 1.00e-08
  Density threshold  = 1.00e-08
  Integral threshold = 0.00e+00

  ==> Primary Basis <==

  Basis Set: AUG-CC-PVTZ
    Blend: AUG-CC-PVTZ
    Number of shells: 48
    Number of basis function: 150
    Number of Cartesian functions: 177
    Spherical Harmonics?: true
    Max angular momentum: 3

  ==> DFT Potential <==

   => Composite Functional: WB97X-D <= 

    wB97X-D Hyb-GGA Exchange-Correlation Functional

    J.-D. Chai and M. Head-Gordon, Phys. Chem. Chem. Phys. 10, 6615 (2008)

    Deriv               =              1
    GGA                 =           TRUE
    Meta                =          FALSE

    Exchange Hybrid     =           TRUE
    MP2 Hybrid          =          FALSE

   => Exchange-Correlation Functionals <=

    1.0000   wB97D range-separated functional

   => Exact (HF) Exchange <=

    0.7780            HF,LR [omega = 0.2000]
    0.2220               HF 

   => Molecular Quadrature <=

    Radial Scheme          =       TREUTLER
    Pruning Scheme         =           NONE
    Nuclear Scheme         =       TREUTLER

    BS radius alpha        =              1
    Pruning alpha          =              1
    Radial Points          =             99
    Spherical Points       =            590
    Total Points           =         169993
    Total Blocks           =           1400
    Max Points             =            256
    Max Functions          =            150
    Weights Tolerance      =       1.00E-15

   => Loading Basis Set <=

    Name: (AUG-CC-PVTZ AUX)
    Role: JKFIT
    Keyword: DF_BASIS_SCF
    atoms 1-3 entry S          line   730 file /apps/gb/PSI4/1.4.0/share/psi4/basis/aug-cc-pvtz-jkfit.gbs 

   => Loading Basis Set <=

    Name: AUG-CC-PVTZ
    Role: ORBITAL
    Keyword: BASIS
    atoms 1-3 entry S          line   906 file /apps/gb/PSI4/1.4.0/share/psi4/basis/aug-cc-pvtz.gbs 

  Reading orbitals from file 180, no projection.

  ==> Pre-Iterations <==

   -------------------------------------------------------
    Irrep   Nso     Nmo     Nalpha   Nbeta   Ndocc  Nsocc
   -------------------------------------------------------
     A'        99      99       0       0       0       0
     A"        51      51       0       0       0       0
   -------------------------------------------------------
    Total     150     150      25      25      25       0
   -------------------------------------------------------

  ==> Integral Setup <==

  ==> DiskDFJK: Density-Fitted J/K Matrices <==

    J tasked:                  Yes
    K tasked:                  Yes
    wK tasked:                 Yes
    Omega:               2.000E-01
    OpenMP threads:              1
    Integrals threads:           1
    Memory [MiB]:             6486
    Algorithm:                Core
    Integral Cache:           NONE
    Schwarz Cutoff:          1E-12
    Fitting Condition:       1E-10

   => Auxiliary Basis Set <=

  Basis Set: (AUG-CC-PVTZ AUX)
    Blend: AUG-CC-PVTZ-JKFIT
    Number of shells: 126
    Number of basis function: 438
    Number of Cartesian functions: 540
    Spherical Harmonics?: true
    Max angular momentum: 4

  Cached 100.0% of DFT collocation blocks in 0.651 [GiB].

  Minimum eigenvalue in the overlap matrix is 2.6424778740E-04.
  Using Symmetric Orthogonalization.

  SCF Guess: Orbitals guess was supplied from a previous computation.

  ==> Iterations <==

                           Total Energy        Delta E     RMS |[F,P]|

   @DF-UKS iter   0: -1194.55968157284087   -1.19456e+03   2.04826e-03 
   @DF-UKS iter   1: -1194.57915959436946   -1.94780e-02   2.62771e-04 DIIS
   @DF-UKS iter   2: -1194.57971903093039   -5.59437e-04   2.11466e-04 DIIS
   @DF-UKS iter   3: -1194.58007143236046   -3.52401e-04   4.68523e-05 DIIS
   @DF-UKS iter   4: -1194.58011812951804   -4.66972e-05   2.35098e-05 DIIS
   @DF-UKS iter   5: -1194.58013498585024   -1.68563e-05   9.25389e-06 DIIS
   @DF-UKS iter   6: -1194.58013705438088   -2.06853e-06   3.48291e-06 DIIS
   @DF-UKS iter   7: -1194.58013766617455   -6.11794e-07   1.14277e-06 DIIS
   @DF-UKS iter   8: -1194.58013772262393   -5.64494e-08   4.10901e-07 DIIS
   @DF-UKS iter   9: -1194.58013772918548   -6.56155e-09   2.24660e-07 DIIS
   @DF-UKS iter  10: -1194.58013773031848   -1.13300e-09   7.90378e-08 DIIS
   @DF-UKS iter  11: -1194.58013773052608   -2.07592e-10   2.26570e-08 DIIS
   @DF-UKS iter  12: -1194.58013773055291   -2.68301e-11   8.12062e-09 DIIS
  Energy and wave function converged.


  ==> Post-Iterations <==

   @Spin Contamination Metric:   4.263256415E-14
   @S^2 Expected:                0.000000000E+00
   @S^2 Observed:                4.263256415E-14
   @S   Expected:                0.000000000E+00
   @S   Observed:                0.000000000E+00

    Orbital Energies [Eh]
    ---------------------

    Alpha Occupied:                                                       

       1Ap   -88.726173     2Ap   -88.670750     3Ap   -88.669773  
       4Ap    -7.729526     5Ap    -7.678066     6Ap    -7.676274  
       7Ap    -5.679986     8Ap    -5.676345     1App   -5.669512  
       9Ap    -5.629111    10Ap    -5.627490    11Ap    -5.621312  
       2App   -5.620455    12Ap    -5.619432     3App   -5.618740  
      13Ap    -0.518392    14Ap    -0.402733    15Ap    -0.290508  
      16Ap    -0.091053    17Ap    -0.068605     4App   -0.053423  
       5App    0.035637    18Ap     0.045008    19Ap     0.048826  
       6App    0.102598  

    Alpha Virtual:                                                        

      20Ap     0.273729    21Ap     0.279224    22Ap     0.322169  
      23Ap     0.344060     7App    0.345430    24Ap     0.347405  
       8App    0.353819     9App    0.364269    25Ap     0.365018  
      26Ap     0.390164    27Ap     0.406100    28Ap     0.422762  
      29Ap     0.479309    30Ap     0.489335    10App    0.529390  
      31Ap     0.551910    11App    0.553102    32Ap     0.586021  
      33Ap     0.594773    34Ap     0.596681    12App    0.612679  
      35Ap     0.615265    13App    0.625267    14App    0.655810  
      36Ap     0.661939    37Ap     0.664532    38Ap     0.687293  
      15App    0.703081    39Ap     0.730738    16App    0.803342  
      40Ap     0.827606    41Ap     0.879540    17App    0.879587  
      42Ap     0.893902    43Ap     0.896470    44Ap     0.911086  
      18App    0.914072    19App    0.918865    45Ap     0.926887  
      20App    0.933228    46Ap     0.938351    47Ap     0.968452  
      21App    0.995620    48Ap     0.997447    49Ap     1.002701  
      22App    1.017114    50Ap     1.022166    51Ap     1.036173  
      52Ap     1.051321    23App    1.064310    53Ap     1.106068  
      24App    1.107390    25App    1.113841    54Ap     1.155566  
      55Ap     1.158412    26App    1.163376    27App    1.165628  
      56Ap     1.186328    57Ap     1.211698    58Ap     1.227534  
      59Ap     1.303025    28App    1.327430    29App    1.350569  
      60Ap     1.380971    30App    1.402071    61Ap     1.403013  
      62Ap     1.483643    31App    1.486290    63Ap     1.505661  
      64Ap     1.528754    65Ap     1.558809    32App    1.572446  
      33App    1.579370    66Ap     1.671360    67Ap     1.673607  
      68Ap     1.768926    69Ap     1.884363    70Ap     2.195095  
      34App    2.208625    35App    2.221375    71Ap     2.235869  
      72Ap     2.261904    36App    2.265900    73Ap     2.272970  
      37App    2.274188    74Ap     2.292324    75Ap     2.345159  
      38App    2.354848    76Ap     2.373965    77Ap     2.401432  
      39App    2.406284    78Ap     2.408107    40App    2.410526  
      41App    2.425768    79Ap     2.437968    80Ap     2.468798  
      42App    2.469757    43App    2.486014    81Ap     2.523987  
      82Ap     2.528546    44App    2.554495    83Ap     2.562510  
      45App    2.567556    84Ap     2.577759    46App    2.642404  
      47App    2.646244    85Ap     2.648670    86Ap     2.663176  
      87Ap     2.669440    48App    2.672648    49App    2.715659  
      88Ap     2.754654    89Ap     2.769732    90Ap     2.821643  
      91Ap     2.833288    92Ap     2.858987    93Ap     2.926848  
      50App    2.929208    51App    2.970175    94Ap     3.050623  
      95Ap     3.969221    96Ap     4.045672    97Ap     5.011825  
      98Ap     5.527281    99Ap     6.014941  

    Beta Occupied:                                                        

       1Ap   -88.726173     2Ap   -88.670750     3Ap   -88.669773  
       4Ap    -7.729526     5Ap    -7.678066     6Ap    -7.676274  
       7Ap    -5.679986     8Ap    -5.676345     1App   -5.669512  
       9Ap    -5.629111    10Ap    -5.627490    11Ap    -5.621312  
       2App   -5.620455    12Ap    -5.619432     3App   -5.618740  
      13Ap    -0.518392    14Ap    -0.402733    15Ap    -0.290508  
      16Ap    -0.091053    17Ap    -0.068605     4App   -0.053423  
       5App    0.035637    18Ap     0.045008    19Ap     0.048826  
       6App    0.102598  

    Beta Virtual:                                                         

      20Ap     0.273729    21Ap     0.279224    22Ap     0.322169  
      23Ap     0.344060     7App    0.345430    24Ap     0.347405  
       8App    0.353819     9App    0.364269    25Ap     0.365018  
      26Ap     0.390164    27Ap     0.406100    28Ap     0.422762  
      29Ap     0.479309    30Ap     0.489335    10App    0.529390  
      31Ap     0.551910    11App    0.553102    32Ap     0.586021  
      33Ap     0.594773    34Ap     0.596681    12App    0.612679  
      35Ap     0.615265    13App    0.625267    14App    0.655810  
      36Ap     0.661939    37Ap     0.664532    38Ap     0.687293  
      15App    0.703081    39Ap     0.730738    16App    0.803342  
      40Ap     0.827606    41Ap     0.879540    17App    0.879587  
      42Ap     0.893902    43Ap     0.896470    44Ap     0.911086  
      18App    0.914072    19App    0.918865    45Ap     0.926887  
      20App    0.933228    46Ap     0.938351    47Ap     0.968452  
      21App    0.995620    48Ap     0.997447    49Ap     1.002701  
      22App    1.017114    50Ap     1.022166    51Ap     1.036173  
      52Ap     1.051321    23App    1.064310    53Ap     1.106068  
      24App    1.107390    25App    1.113841    54Ap     1.155566  
      55Ap     1.158412    26App    1.163376    27App    1.165628  
      56Ap     1.186328    57Ap     1.211698    58Ap     1.227534  
      59Ap     1.303025    28App    1.327430    29App    1.350569  
      60Ap     1.380971    30App    1.402071    61Ap     1.403013  
      62Ap     1.483643    31App    1.486290    63Ap     1.505661  
      64Ap     1.528754    65Ap     1.558809    32App    1.572446  
      33App    1.579370    66Ap     1.671360    67Ap     1.673607  
      68Ap     1.768926    69Ap     1.884363    70Ap     2.195095  
      34App    2.208625    35App    2.221375    71Ap     2.235869  
      72Ap     2.261904    36App    2.265900    73Ap     2.272970  
      37App    2.274188    74Ap     2.292324    75Ap     2.345159  
      38App    2.354848    76Ap     2.373965    77Ap     2.401432  
      39App    2.406284    78Ap     2.408107    40App    2.410526  
      41App    2.425768    79Ap     2.437968    80Ap     2.468798  
      42App    2.469757    43App    2.486014    81Ap     2.523987  
      82Ap     2.528546    44App    2.554495    83Ap     2.562510  
      45App    2.567556    84Ap     2.577759    46App    2.642404  
      47App    2.646244    85Ap     2.648670    86Ap     2.663176  
      87Ap     2.669440    48App    2.672648    49App    2.715659  
      88Ap     2.754654    89Ap     2.769732    90Ap     2.821643  
      91Ap     2.833288    92Ap     2.858987    93Ap     2.926848  
      50App    2.929208    51App    2.970175    94Ap     3.050623  
      95Ap     3.969221    96Ap     4.045672    97Ap     5.011825  
      98Ap     5.527281    99Ap     6.014941  

    Final Occupation by Irrep:
             Ap   App 
    DOCC [    19,    6 ]
    SOCC [     0,    0 ]

  @DF-UKS Final Energy: -1194.58013773055291

   => Energetics <=

    Nuclear Repulsion Energy =            168.7630338219639725
    One-Electron Energy =               -2005.6686477228490730
    Two-Electron Energy =                 698.7521271253858686
    DFT Exchange-Correlation Energy =     -56.4263807520303544
    Empirical Dispersion Energy =          -0.0002702030232247
    VV10 Nonlocal Energy =                  0.0000000000000000
    Total Energy =                      -1194.5801377305529059

  UHF NO Occupations:
  HONO-2 :   17 Ap 2.0000000
  HONO-1 :   18 Ap 2.0000000
  HONO-0 :   19 Ap 2.0000000
  LUNO+0 :   20 Ap 0.0000000
  LUNO+1 :   21 Ap 0.0000000
  LUNO+2 :   22 Ap 0.0000000
  LUNO+3 :   23 Ap 0.0000000


Computation Completed


Properties will be evaluated at   0.000000,   0.000000,   0.000000 [a0]

Properties computed using the SCF density matrix

  Nuclear Dipole Moment: [e a0]
     X:     0.0000      Y:     0.0000      Z:     0.0000

  Electronic Dipole Moment: [e a0]
     X:     0.6774      Y:     0.3209      Z:     0.0000

  Dipole Moment: [e a0]
     X:     0.6774      Y:     0.3209      Z:     0.0000     Total:     0.7496

  Dipole Moment: [D]
     X:     1.7218      Y:     0.8156      Z:     0.0000     Total:     1.9052


*** tstop() called on c2-18.compute.lan at Tue Feb  2 14:46:32 2021
Module time:
	user time   =      77.78 seconds =       1.30 minutes
	system time =       0.63 seconds =       0.01 minutes
	total time  =        103 seconds =       1.72 minutes
Total time:
	user time   =     186.54 seconds =       3.11 minutes
	system time =      61.09 seconds =       1.02 minutes
	total time  =        406 seconds =       6.77 minutes

*** tstart() called on c2-18.compute.lan
*** at Tue Feb  2 14:46:32 2021


         ------------------------------------------------------------
                                   SCF GRAD                          
                          Rob Parrish, Justin Turney,                
                       Andy Simmonett, and Alex Sokolov              
         ------------------------------------------------------------

  ==> Geometry <==

    Molecular point group: cs
    Full point group: Cs

    Geometry (in Angstrom), charge = -2, multiplicity = 1:

       Center              X                  Y                   Z               Mass       
    ------------   -----------------  -----------------  -----------------  -----------------
         S            0.642394885715     0.394668809222     0.000000000000    31.972071174400
         S            0.642394885715    -1.658424258450     0.000000000000    31.972071174400
         S           -1.284789771429     1.263755449228     0.000000000000    31.972071174400

  Nuclear repulsion =  168.763033821963973

  ==> Basis Set <==

  Basis Set: AUG-CC-PVTZ
    Blend: AUG-CC-PVTZ
    Number of shells: 48
    Number of basis function: 150
    Number of Cartesian functions: 177
    Spherical Harmonics?: true
    Max angular momentum: 3

  ==> DFJKGrad: Density-Fitted SCF Gradients <==

    Gradient:                    1
    J tasked:                  Yes
    K tasked:                  Yes
    wK tasked:                 Yes
    Omega:               2.000E-01
    OpenMP threads:              1
    Integrals threads:           1
    Memory [MiB]:             7152
    Schwarz Cutoff:          0E+00
    Fitting Condition:       1E-10

   => Auxiliary Basis Set <=

  Basis Set: (AUG-CC-PVTZ AUX)
    Blend: AUG-CC-PVTZ-JKFIT
    Number of shells: 126
    Number of basis function: 438
    Number of Cartesian functions: 540
    Spherical Harmonics?: true
    Max angular momentum: 4

  ==> DFT Potential <==

   => Composite Functional: WB97X-D <= 

    wB97X-D Hyb-GGA Exchange-Correlation Functional

    J.-D. Chai and M. Head-Gordon, Phys. Chem. Chem. Phys. 10, 6615 (2008)

    Deriv               =              1
    GGA                 =           TRUE
    Meta                =          FALSE

    Exchange Hybrid     =           TRUE
    MP2 Hybrid          =          FALSE

   => Exchange-Correlation Functionals <=

    1.0000   wB97D range-separated functional

   => Exact (HF) Exchange <=

    0.7780            HF,LR [omega = 0.2000]
    0.2220               HF 

   => Molecular Quadrature <=

    Radial Scheme          =       TREUTLER
    Pruning Scheme         =           NONE
    Nuclear Scheme         =       TREUTLER

    BS radius alpha        =              1
    Pruning alpha          =              1
    Radial Points          =             99
    Spherical Points       =            590
    Total Points           =         169993
    Total Blocks           =           1400
    Max Points             =            256
    Max Functions          =            150
    Weights Tolerance      =       1.00E-15


  -Total Gradient:
     Atom            X                  Y                   Z
    ------   -----------------  -----------------  -----------------
       1       -0.002822836504    -0.016690434073     0.000000000000
       2        0.001284061498     0.016040835313     0.000000000000
       3        0.001546352911     0.000670075785     0.000000000000


*** tstop() called on c2-18.compute.lan at Tue Feb  2 14:47:00 2021
Module time:
	user time   =      19.15 seconds =       0.32 minutes
	system time =       0.11 seconds =       0.00 minutes
	total time  =         28 seconds =       0.47 minutes
Total time:
	user time   =     205.70 seconds =       3.43 minutes
	system time =      61.20 seconds =       1.02 minutes
	total time  =        434 seconds =       7.23 minutes

			-----------------------------------------
			 OPTKING 2.0: for geometry optimizations 
			  - R.A. King,  Bethel University        
			-----------------------------------------

	Previous internal coordinate definitions found.
	---Fragment 1 Geometry and Gradient---
	 S           1.2139503984        0.7458159597        0.0000000000
	 S           1.2139503984       -3.1339676483        0.0000000000
	 S          -2.4279007968        2.3881516886        0.0000000000
	            -0.0028228365       -0.0166904341        0.0000000000
	             0.0012840615        0.0160408353        0.0000000000
	             0.0015463529        0.0006700758        0.0000000000

	---Fragment 1 Intrafragment Coordinates---
	 - Coordinate -           - BOHR/RAD -       - ANG/DEG -
	 R(1,2)           =         3.879784	       2.053093
	 R(1,3)           =         3.995040	       2.114084
	 B(2,1,3)         =         1.994450	     114.273555

	Current energy   :     -1194.5801377306

	Energy change for the previous step:
		Projected    :        -0.0058138950
		Actual       :        -0.0041722001

	Performing BFGS update.
	Previous computed or guess Hessian on step 1.
	Steps to be used in Hessian update: 1
	Taking RFO optimization step.
	Going to follow RFO solution 1.
	Using RFO vector 1.
	Norm of target step-size    0.08010
	Projected energy change by RFO approximation:        -0.0044815629

	Back-transformation to cartesian coordinates...
	Successfully converged to displaced geometry.

	--- Internal Coordinate Step in ANG or DEG, aJ/ANG or AJ/DEG ---
	 ---------------------------------------------------------------------------
	   Coordinate                Previous        Force       Change         New 
	   ----------                --------       ------       ------       ------
	    1 R(1,2)          =      2.053093     0.132091     0.038533     2.091626
	    2 R(1,3)          =      2.114084     0.009357     0.003957     2.118042
	    3 B(2,1,3)        =    114.273555    -0.000378    -1.863518   112.410038
	 ---------------------------------------------------------------------------
	Successfully symmetrized geometry.

  ==> Convergence Check <==

  Measures of convergence in internal coordinates in au.
  Criteria marked as inactive (o), active & met (*), and active & unmet ( ).
  ---------------------------------------------------------------------------------------------
   Step     Total Energy     Delta E     MAX Force     RMS Force      MAX Disp      RMS Disp   
  ---------------------------------------------------------------------------------------------
    Convergence Criteria             o    2.00e-06 *    1.00e-06 *    6.00e-06 *    4.00e-06 *
  ---------------------------------------------------------------------------------------------
      2   -1194.58013773   -4.17e-03 o    1.60e-02      9.71e-03      7.28e-02      4.62e-02    ~
  ---------------------------------------------------------------------------------------------

	Writing optimization data to binary file.
	Structure for next step:
	Cartesian Geometry (in Angstrom)
	    S     0.6583480154   0.4193073137   0.0000000000
	    S     0.6304424083  -1.6721327169   0.0000000000
	    S    -1.2887904237   1.2528254033   0.0000000000
			--------------------------
			 OPTKING Finished Execution 
			--------------------------

    Structure for next step:
    Molecular point group: cs
    Full point group: Cs

    Geometry (in Angstrom), charge = -2, multiplicity = 1:

    S       
    S             1          r1
    S             1          r2      2          a1

    a1        =  112.4100378720
    r1        =    2.0916261996
    r2        =    2.1180416761

gradient() will perform analytic gradient computation.

*** tstart() called on c2-18.compute.lan
*** at Tue Feb  2 14:47:00 2021

   => Loading Basis Set <=

    Name: AUG-CC-PVTZ
    Role: ORBITAL
    Keyword: BASIS
    atoms 1-3 entry S          line   906 file /apps/gb/PSI4/1.4.0/share/psi4/basis/aug-cc-pvtz.gbs 

   => WB97X-D: Empirical Dispersion <=

    Chai and Head-Gordon Dispersion Correction
    Chai, J.-D.; Head-Gordon, M. (2010), J. Chem. Phys., 132: 6615-6620

        s6 =       1.000000


         ---------------------------------------------------------
                                   SCF
               by Justin Turney, Rob Parrish, Andy Simmonett
                          and Daniel G. A. Smith
                              UKS Reference
                        1 Threads,   9536 MiB Core
         ---------------------------------------------------------

  ==> Geometry <==

    Molecular point group: cs
    Full point group: Cs

    Geometry (in Angstrom), charge = -2, multiplicity = 1:

       Center              X                  Y                   Z               Mass       
    ------------   -----------------  -----------------  -----------------  -----------------
         S            0.652695199198     0.428053401297     0.000000000000    31.972071174400
         S            0.652695199198    -1.663572798308     0.000000000000    31.972071174400
         S           -1.305390398396     1.235519397011     0.000000000000    31.972071174400

  Running in cs symmetry.

  Rotational constants: A =      0.57708  B =      0.08616  C =      0.07497 [cm^-1]
  Rotational constants: A =  17300.56611  B =   2582.98750  C =   2247.44263 [MHz]
  Nuclear repulsion =  167.450394311482739

  Charge       = -2
  Multiplicity = 1
  Electrons    = 50
  Nalpha       = 25
  Nbeta        = 25

  ==> Algorithm <==

  SCF Algorithm Type is DF.
  DIIS enabled.
  MOM disabled.
  Fractional occupation disabled.
  Guess Type is READ.
  Energy threshold   = 1.00e-08
  Density threshold  = 1.00e-08
  Integral threshold = 0.00e+00

  ==> Primary Basis <==

  Basis Set: AUG-CC-PVTZ
    Blend: AUG-CC-PVTZ
    Number of shells: 48
    Number of basis function: 150
    Number of Cartesian functions: 177
    Spherical Harmonics?: true
    Max angular momentum: 3

  ==> DFT Potential <==

   => Composite Functional: WB97X-D <= 

    wB97X-D Hyb-GGA Exchange-Correlation Functional

    J.-D. Chai and M. Head-Gordon, Phys. Chem. Chem. Phys. 10, 6615 (2008)

    Deriv               =              1
    GGA                 =           TRUE
    Meta                =          FALSE

    Exchange Hybrid     =           TRUE
    MP2 Hybrid          =          FALSE

   => Exchange-Correlation Functionals <=

    1.0000   wB97D range-separated functional

   => Exact (HF) Exchange <=

    0.7780            HF,LR [omega = 0.2000]
    0.2220               HF 

   => Molecular Quadrature <=

    Radial Scheme          =       TREUTLER
    Pruning Scheme         =           NONE
    Nuclear Scheme         =       TREUTLER

    BS radius alpha        =              1
    Pruning alpha          =              1
    Radial Points          =             99
    Spherical Points       =            590
    Total Points           =         170050
    Total Blocks           =           1398
    Max Points             =            255
    Max Functions          =            150
    Weights Tolerance      =       1.00E-15

   => Loading Basis Set <=

    Name: (AUG-CC-PVTZ AUX)
    Role: JKFIT
    Keyword: DF_BASIS_SCF
    atoms 1-3 entry S          line   730 file /apps/gb/PSI4/1.4.0/share/psi4/basis/aug-cc-pvtz-jkfit.gbs 

   => Loading Basis Set <=

    Name: AUG-CC-PVTZ
    Role: ORBITAL
    Keyword: BASIS
    atoms 1-3 entry S          line   906 file /apps/gb/PSI4/1.4.0/share/psi4/basis/aug-cc-pvtz.gbs 

  Reading orbitals from file 180, no projection.

  ==> Pre-Iterations <==

   -------------------------------------------------------
    Irrep   Nso     Nmo     Nalpha   Nbeta   Ndocc  Nsocc
   -------------------------------------------------------
     A'        99      99       0       0       0       0
     A"        51      51       0       0       0       0
   -------------------------------------------------------
    Total     150     150      25      25      25       0
   -------------------------------------------------------

  ==> Integral Setup <==

  ==> DiskDFJK: Density-Fitted J/K Matrices <==

    J tasked:                  Yes
    K tasked:                  Yes
    wK tasked:                 Yes
    Omega:               2.000E-01
    OpenMP threads:              1
    Integrals threads:           1
    Memory [MiB]:             6486
    Algorithm:                Core
    Integral Cache:           NONE
    Schwarz Cutoff:          1E-12
    Fitting Condition:       1E-10

   => Auxiliary Basis Set <=

  Basis Set: (AUG-CC-PVTZ AUX)
    Blend: AUG-CC-PVTZ-JKFIT
    Number of shells: 126
    Number of basis function: 438
    Number of Cartesian functions: 540
    Spherical Harmonics?: true
    Max angular momentum: 4

  Cached 100.0% of DFT collocation blocks in 0.651 [GiB].

  Minimum eigenvalue in the overlap matrix is 2.8487853735E-04.
  Using Symmetric Orthogonalization.

  SCF Guess: Orbitals guess was supplied from a previous computation.

  ==> Iterations <==

                           Total Energy        Delta E     RMS |[F,P]|

   @DF-UKS iter   0: -1194.56918711449862   -1.19457e+03   8.60799e-04 
   @DF-UKS iter   1: -1194.58072761056860   -1.15405e-02   1.40665e-04 DIIS
   @DF-UKS iter   2: -1194.58081536640111   -8.77558e-05   1.23943e-04 DIIS
   @DF-UKS iter   3: -1194.58092933788885   -1.13971e-04   2.08159e-05 DIIS
   @DF-UKS iter   4: -1194.58093529770690   -5.95982e-06   8.69042e-06 DIIS
   @DF-UKS iter   5: -1194.58093774238387   -2.44468e-06   3.58004e-06 DIIS
   @DF-UKS iter   6: -1194.58093804863711   -3.06253e-07   1.33642e-06 DIIS
   @DF-UKS iter   7: -1194.58093813404548   -8.54084e-08   5.18091e-07 DIIS
   @DF-UKS iter   8: -1194.58093814475978   -1.07143e-08   1.86367e-07 DIIS
   @DF-UKS iter   9: -1194.58093814593985   -1.18007e-09   9.83271e-08 DIIS
   @DF-UKS iter  10: -1194.58093814618019   -2.40334e-10   3.23881e-08 DIIS
   @DF-UKS iter  11: -1194.58093814621543   -3.52429e-11   8.58308e-09 DIIS
  Energy and wave function converged.


  ==> Post-Iterations <==

   @Spin Contamination Metric:  -7.815970093E-14
   @S^2 Expected:                0.000000000E+00
   @S^2 Observed:               -7.815970093E-14
   @S   Expected:                0.000000000E+00
   @S   Observed:                0.000000000E+00

    Orbital Energies [Eh]
    ---------------------

    Alpha Occupied:                                                       

       1Ap   -88.728412     2Ap   -88.671286     3Ap   -88.670896  
       4Ap    -7.731285     5Ap    -7.678025     6Ap    -7.677308  
       7Ap    -5.681727     8Ap    -5.678222     1App   -5.671271  
       9Ap    -5.629230    10Ap    -5.628585    11Ap    -5.621215  
      12Ap    -5.620458     2App   -5.620417     3App   -5.619731  
      13Ap    -0.513365    14Ap    -0.399901    15Ap    -0.293826  
      16Ap    -0.088670    17Ap    -0.067407     4App   -0.051161  
       5App    0.036370    18Ap     0.043172    19Ap     0.050128  
       6App    0.099558  

    Alpha Virtual:                                                        

      20Ap     0.273968    21Ap     0.278582    22Ap     0.321563  
      23Ap     0.344927     7App    0.345933    24Ap     0.347062  
       8App    0.354139     9App    0.363509    25Ap     0.364107  
      26Ap     0.387659    27Ap     0.406506    28Ap     0.416295  
      29Ap     0.479393    30Ap     0.487381    10App    0.530234  
      11App    0.552418    31Ap     0.554172    32Ap     0.586696  
      33Ap     0.592156    34Ap     0.596386    12App    0.610034  
      35Ap     0.613659    13App    0.626575    14App    0.655271  
      36Ap     0.661397    37Ap     0.662543    38Ap     0.685402  
      15App    0.700668    39Ap     0.728135    16App    0.803871  
      40Ap     0.829703    41Ap     0.879945    17App    0.881050  
      42Ap     0.896182    43Ap     0.897274    44Ap     0.910885  
      18App    0.912462    19App    0.918361    45Ap     0.926858  
      20App    0.932047    46Ap     0.939786    47Ap     0.966879  
      21App    0.995341    48Ap     0.997465    49Ap     1.002694  
      22App    1.018580    50Ap     1.022729    51Ap     1.033450  
      52Ap     1.046552    23App    1.063888    53Ap     1.104640  
      24App    1.107157    25App    1.108050    54Ap     1.152625  
      55Ap     1.158226    26App    1.160415    27App    1.164499  
      56Ap     1.176923    57Ap     1.204087    58Ap     1.226400  
      59Ap     1.299679    28App    1.328650    29App    1.346227  
      60Ap     1.378284    61Ap     1.393057    30App    1.394969  
      62Ap     1.473979    31App    1.481930    63Ap     1.508784  
      64Ap     1.522632    65Ap     1.555551    32App    1.565024  
      33App    1.574395    66Ap     1.660340    67Ap     1.661883  
      68Ap     1.764482    69Ap     1.882588    70Ap     2.197077  
      34App    2.208546    35App    2.220050    71Ap     2.237182  
      72Ap     2.259423    36App    2.264836    37App    2.271680  
      73Ap     2.277356    74Ap     2.285782    75Ap     2.347910  
      38App    2.355869    76Ap     2.372381    77Ap     2.407806  
      39App    2.408525    40App    2.410223    78Ap     2.413945  
      41App    2.426229    79Ap     2.442546    80Ap     2.470813  
      42App    2.472155    43App    2.489199    81Ap     2.521789  
      82Ap     2.531692    44App    2.553597    83Ap     2.561174  
      45App    2.566718    84Ap     2.577910    46App    2.640192  
      85Ap     2.646376    47App    2.646529    86Ap     2.656341  
      48App    2.657748    87Ap     2.660764    49App    2.703948  
      88Ap     2.741823    89Ap     2.757606    90Ap     2.805685  
      91Ap     2.821747    92Ap     2.829537    50App    2.925614  
      93Ap     2.926769    51App    2.943207    94Ap     3.024889  
      95Ap     3.959240    96Ap     4.003227    97Ap     4.955308  
      98Ap     5.512092    99Ap     6.017918  

    Beta Occupied:                                                        

       1Ap   -88.728412     2Ap   -88.671286     3Ap   -88.670896  
       4Ap    -7.731285     5Ap    -7.678025     6Ap    -7.677308  
       7Ap    -5.681727     8Ap    -5.678222     1App   -5.671271  
       9Ap    -5.629230    10Ap    -5.628585    11Ap    -5.621215  
      12Ap    -5.620458     2App   -5.620417     3App   -5.619731  
      13Ap    -0.513365    14Ap    -0.399901    15Ap    -0.293826  
      16Ap    -0.088670    17Ap    -0.067407     4App   -0.051161  
       5App    0.036370    18Ap     0.043172    19Ap     0.050128  
       6App    0.099558  

    Beta Virtual:                                                         

      20Ap     0.273968    21Ap     0.278582    22Ap     0.321563  
      23Ap     0.344927     7App    0.345933    24Ap     0.347062  
       8App    0.354139     9App    0.363509    25Ap     0.364107  
      26Ap     0.387659    27Ap     0.406506    28Ap     0.416295  
      29Ap     0.479393    30Ap     0.487381    10App    0.530234  
      11App    0.552418    31Ap     0.554172    32Ap     0.586696  
      33Ap     0.592156    34Ap     0.596386    12App    0.610034  
      35Ap     0.613659    13App    0.626575    14App    0.655271  
      36Ap     0.661397    37Ap     0.662543    38Ap     0.685402  
      15App    0.700668    39Ap     0.728135    16App    0.803871  
      40Ap     0.829703    41Ap     0.879945    17App    0.881050  
      42Ap     0.896182    43Ap     0.897274    44Ap     0.910885  
      18App    0.912462    19App    0.918361    45Ap     0.926858  
      20App    0.932047    46Ap     0.939786    47Ap     0.966879  
      21App    0.995341    48Ap     0.997465    49Ap     1.002694  
      22App    1.018580    50Ap     1.022729    51Ap     1.033450  
      52Ap     1.046552    23App    1.063888    53Ap     1.104640  
      24App    1.107157    25App    1.108050    54Ap     1.152625  
      55Ap     1.158226    26App    1.160415    27App    1.164499  
      56Ap     1.176923    57Ap     1.204087    58Ap     1.226400  
      59Ap     1.299679    28App    1.328650    29App    1.346227  
      60Ap     1.378284    61Ap     1.393057    30App    1.394969  
      62Ap     1.473979    31App    1.481930    63Ap     1.508784  
      64Ap     1.522632    65Ap     1.555551    32App    1.565024  
      33App    1.574395    66Ap     1.660340    67Ap     1.661883  
      68Ap     1.764482    69Ap     1.882588    70Ap     2.197077  
      34App    2.208546    35App    2.220050    71Ap     2.237182  
      72Ap     2.259423    36App    2.264836    37App    2.271680  
      73Ap     2.277356    74Ap     2.285782    75Ap     2.347910  
      38App    2.355869    76Ap     2.372381    77Ap     2.407806  
      39App    2.408525    40App    2.410223    78Ap     2.413945  
      41App    2.426229    79Ap     2.442546    80Ap     2.470813  
      42App    2.472155    43App    2.489199    81Ap     2.521789  
      82Ap     2.531692    44App    2.553597    83Ap     2.561174  
      45App    2.566718    84Ap     2.577910    46App    2.640192  
      85Ap     2.646376    47App    2.646529    86Ap     2.656341  
      48App    2.657748    87Ap     2.660764    49App    2.703948  
      88Ap     2.741823    89Ap     2.757606    90Ap     2.805685  
      91Ap     2.821747    92Ap     2.829537    50App    2.925614  
      93Ap     2.926769    51App    2.943207    94Ap     3.024889  
      95Ap     3.959240    96Ap     4.003227    97Ap     4.955308  
      98Ap     5.512092    99Ap     6.017918  

    Final Occupation by Irrep:
             Ap   App 
    DOCC [    19,    6 ]
    SOCC [     0,    0 ]

  @DF-UKS Final Energy: -1194.58093814621543

   => Energetics <=

    Nuclear Repulsion Energy =            167.4503943114827393
    One-Electron Energy =               -2003.0363329686317684
    Two-Electron Energy =                 697.4218719157671558
    DFT Exchange-Correlation Energy =     -56.4166000525881373
    Empirical Dispersion Energy =          -0.0002713522456843
    VV10 Nonlocal Energy =                  0.0000000000000000
    Total Energy =                      -1194.5809381462154306

  UHF NO Occupations:
  HONO-2 :   17 Ap 2.0000000
  HONO-1 :   18 Ap 2.0000000
  HONO-0 :   19 Ap 2.0000000
  LUNO+0 :   20 Ap 0.0000000
  LUNO+1 :   21 Ap 0.0000000
  LUNO+2 :   22 Ap 0.0000000
  LUNO+3 :   23 Ap 0.0000000


Computation Completed


Properties will be evaluated at   0.000000,   0.000000,   0.000000 [a0]

Properties computed using the SCF density matrix

  Nuclear Dipole Moment: [e a0]
     X:     0.0000      Y:     0.0000      Z:     0.0000

  Electronic Dipole Moment: [e a0]
     X:     0.6388      Y:     0.3773      Z:     0.0000

  Dipole Moment: [e a0]
     X:     0.6388      Y:     0.3773      Z:     0.0000     Total:     0.7419

  Dipole Moment: [D]
     X:     1.6236      Y:     0.9591      Z:     0.0000     Total:     1.8857


*** tstop() called on c2-18.compute.lan at Tue Feb  2 14:48:48 2021
Module time:
	user time   =      72.41 seconds =       1.21 minutes
	system time =       0.41 seconds =       0.01 minutes
	total time  =        108 seconds =       1.80 minutes
Total time:
	user time   =     278.13 seconds =       4.64 minutes
	system time =      61.62 seconds =       1.03 minutes
	total time  =        542 seconds =       9.03 minutes

*** tstart() called on c2-18.compute.lan
*** at Tue Feb  2 14:48:48 2021


         ------------------------------------------------------------
                                   SCF GRAD                          
                          Rob Parrish, Justin Turney,                
                       Andy Simmonett, and Alex Sokolov              
         ------------------------------------------------------------

  ==> Geometry <==

    Molecular point group: cs
    Full point group: Cs

    Geometry (in Angstrom), charge = -2, multiplicity = 1:

       Center              X                  Y                   Z               Mass       
    ------------   -----------------  -----------------  -----------------  -----------------
         S            0.652695199198     0.428053401297     0.000000000000    31.972071174400
         S            0.652695199198    -1.663572798308     0.000000000000    31.972071174400
         S           -1.305390398396     1.235519397011     0.000000000000    31.972071174400

  Nuclear repulsion =  167.450394311482739

  ==> Basis Set <==

  Basis Set: AUG-CC-PVTZ
    Blend: AUG-CC-PVTZ
    Number of shells: 48
    Number of basis function: 150
    Number of Cartesian functions: 177
    Spherical Harmonics?: true
    Max angular momentum: 3

  ==> DFJKGrad: Density-Fitted SCF Gradients <==

    Gradient:                    1
    J tasked:                  Yes
    K tasked:                  Yes
    wK tasked:                 Yes
    Omega:               2.000E-01
    OpenMP threads:              1
    Integrals threads:           1
    Memory [MiB]:             7152
    Schwarz Cutoff:          0E+00
    Fitting Condition:       1E-10

   => Auxiliary Basis Set <=

  Basis Set: (AUG-CC-PVTZ AUX)
    Blend: AUG-CC-PVTZ-JKFIT
    Number of shells: 126
    Number of basis function: 438
    Number of Cartesian functions: 540
    Spherical Harmonics?: true
    Max angular momentum: 4

  ==> DFT Potential <==

   => Composite Functional: WB97X-D <= 

    wB97X-D Hyb-GGA Exchange-Correlation Functional

    J.-D. Chai and M. Head-Gordon, Phys. Chem. Chem. Phys. 10, 6615 (2008)

    Deriv               =              1
    GGA                 =           TRUE
    Meta                =          FALSE

    Exchange Hybrid     =           TRUE
    MP2 Hybrid          =          FALSE

   => Exchange-Correlation Functionals <=

    1.0000   wB97D range-separated functional

   => Exact (HF) Exchange <=

    0.7780            HF,LR [omega = 0.2000]
    0.2220               HF 

   => Molecular Quadrature <=

    Radial Scheme          =       TREUTLER
    Pruning Scheme         =           NONE
    Nuclear Scheme         =       TREUTLER

    BS radius alpha        =              1
    Pruning alpha          =              1
    Radial Points          =             99
    Spherical Points       =            590
    Total Points           =         170050
    Total Blocks           =           1398
    Max Points             =            255
    Max Functions          =            150
    Weights Tolerance      =       1.00E-15


  -Total Gradient:
     Atom            X                  Y                   Z
    ------   -----------------  -----------------  -----------------
       1        0.001577316684    -0.004769522923     0.000000000000
       2       -0.000436438607     0.004784328558     0.000000000000
       3       -0.001133909839     0.000007331881     0.000000000000


*** tstop() called on c2-18.compute.lan at Tue Feb  2 14:49:17 2021
Module time:
	user time   =      19.36 seconds =       0.32 minutes
	system time =       0.13 seconds =       0.00 minutes
	total time  =         29 seconds =       0.48 minutes
Total time:
	user time   =     297.49 seconds =       4.96 minutes
	system time =      61.75 seconds =       1.03 minutes
	total time  =        571 seconds =       9.52 minutes

			-----------------------------------------
			 OPTKING 2.0: for geometry optimizations 
			  - R.A. King,  Bethel University        
			-----------------------------------------

	Previous internal coordinate definitions found.
	---Fragment 1 Geometry and Gradient---
	 S           1.2334151699        0.8089036955        0.0000000000
	 S           1.2334151699       -3.1436969786        0.0000000000
	 S          -2.4668303398        2.3347932830        0.0000000000
	             0.0015773167       -0.0047695229        0.0000000000
	            -0.0004364386        0.0047843286        0.0000000000
	            -0.0011339098        0.0000073319        0.0000000000

	---Fragment 1 Intrafragment Coordinates---
	 - Coordinate -           - BOHR/RAD -       - ANG/DEG -
	 R(1,2)           =         3.952601	       2.091626
	 R(1,3)           =         4.002519	       2.118042
	 B(2,1,3)         =         1.961925	     112.410038

	Current energy   :     -1194.5809381462

	Energy change for the previous step:
		Projected    :        -0.0044815629
		Actual       :        -0.0008004157
	Energy ratio indicates iffy step: Trust radius decreased to 1.250e-01.


	Performing BFGS update.
	Previous computed or guess Hessian on step 1.
	Steps to be used in Hessian update: 2 1
	Taking RFO optimization step.
	Going to follow RFO solution 1.
	Using RFO vector 1.
	Norm of target step-size    0.02387
	Projected energy change by RFO approximation:        -0.0003147226

	Back-transformation to cartesian coordinates...
	Successfully converged to displaced geometry.

	--- Internal Coordinate Step in ANG or DEG, aJ/ANG or AJ/DEG ---
	 ---------------------------------------------------------------------------
	   Coordinate                Previous        Force       Change         New 
	   ----------                --------       ------       ------       ------
	    1 R(1,2)          =      2.091626     0.039356     0.012258     2.103884
	    2 R(1,3)          =      2.118042    -0.008654    -0.002053     2.115989
	    3 B(2,1,3)        =    112.410038     0.000132     0.242758   112.652796
	 ---------------------------------------------------------------------------
	Successfully symmetrized geometry.

  ==> Convergence Check <==

  Measures of convergence in internal coordinates in au.
  Criteria marked as inactive (o), active & met (*), and active & unmet ( ).
  ---------------------------------------------------------------------------------------------
   Step     Total Energy     Delta E     MAX Force     RMS Force      MAX Disp      RMS Disp   
  ---------------------------------------------------------------------------------------------
    Convergence Criteria             o    2.00e-06 *    1.00e-06 *    6.00e-06 *    4.00e-06 *
  ---------------------------------------------------------------------------------------------
      3   -1194.58093815   -8.00e-04 o    4.78e-03      3.00e-03      2.32e-02      1.38e-02    ~
  ---------------------------------------------------------------------------------------------

	Writing optimization data to binary file.
	Structure for next step:
	Cartesian Geometry (in Angstrom)
	    S     0.6494290707   0.4318863594   0.0000000000
	    S     0.6566979643  -1.6719853535   0.0000000000
	    S    -1.3061270350   1.2400989941   0.0000000000
			--------------------------
			 OPTKING Finished Execution 
			--------------------------

    Structure for next step:
    Molecular point group: cs
    Full point group: Cs

    Geometry (in Angstrom), charge = -2, multiplicity = 1:

    S       
    S             1          r1
    S             1          r2      2          a1

    a1        =  112.6527963331
    r1        =    2.1038842782
    r2        =    2.1159885114

gradient() will perform analytic gradient computation.

*** tstart() called on c2-18.compute.lan
*** at Tue Feb  2 14:49:17 2021

   => Loading Basis Set <=

    Name: AUG-CC-PVTZ
    Role: ORBITAL
    Keyword: BASIS
    atoms 1-3 entry S          line   906 file /apps/gb/PSI4/1.4.0/share/psi4/basis/aug-cc-pvtz.gbs 

   => WB97X-D: Empirical Dispersion <=

    Chai and Head-Gordon Dispersion Correction
    Chai, J.-D.; Head-Gordon, M. (2010), J. Chem. Phys., 132: 6615-6620

        s6 =       1.000000


         ---------------------------------------------------------
                                   SCF
               by Justin Turney, Rob Parrish, Andy Simmonett
                          and Daniel G. A. Smith
                              UKS Reference
                        1 Threads,   9536 MiB Core
         ---------------------------------------------------------

  ==> Geometry <==

    Molecular point group: cs
    Full point group: Cs

    Geometry (in Angstrom), charge = -2, multiplicity = 1:

       Center              X                  Y                   Z               Mass       
    ------------   -----------------  -----------------  -----------------  -----------------
         S            0.650917359081     0.429640014191     0.000000000000    31.972071174400
         S            0.650917359081    -1.674244264028     0.000000000000    31.972071174400
         S           -1.301834718163     1.244604249837     0.000000000000    31.972071174400

  Running in cs symmetry.

  Rotational constants: A =      0.57789  B =      0.08550  C =      0.07448 [cm^-1]
  Rotational constants: A =  17324.81111  B =   2563.34871  C =   2232.96336 [MHz]
  Nuclear repulsion =  166.987109496223979

  Charge       = -2
  Multiplicity = 1
  Electrons    = 50
  Nalpha       = 25
  Nbeta        = 25

  ==> Algorithm <==

  SCF Algorithm Type is DF.
  DIIS enabled.
  MOM disabled.
  Fractional occupation disabled.
  Guess Type is READ.
  Energy threshold   = 1.00e-08
  Density threshold  = 1.00e-08
  Integral threshold = 0.00e+00

  ==> Primary Basis <==

  Basis Set: AUG-CC-PVTZ
    Blend: AUG-CC-PVTZ
    Number of shells: 48
    Number of basis function: 150
    Number of Cartesian functions: 177
    Spherical Harmonics?: true
    Max angular momentum: 3

  ==> DFT Potential <==

   => Composite Functional: WB97X-D <= 

    wB97X-D Hyb-GGA Exchange-Correlation Functional

    J.-D. Chai and M. Head-Gordon, Phys. Chem. Chem. Phys. 10, 6615 (2008)

    Deriv               =              1
    GGA                 =           TRUE
    Meta                =          FALSE

    Exchange Hybrid     =           TRUE
    MP2 Hybrid          =          FALSE

   => Exchange-Correlation Functionals <=

    1.0000   wB97D range-separated functional

   => Exact (HF) Exchange <=

    0.7780            HF,LR [omega = 0.2000]
    0.2220               HF 

   => Molecular Quadrature <=

    Radial Scheme          =       TREUTLER
    Pruning Scheme         =           NONE
    Nuclear Scheme         =       TREUTLER

    BS radius alpha        =              1
    Pruning alpha          =              1
    Radial Points          =             99
    Spherical Points       =            590
    Total Points           =         170029
    Total Blocks           =           1397
    Max Points             =            256
    Max Functions          =            150
    Weights Tolerance      =       1.00E-15

   => Loading Basis Set <=

    Name: (AUG-CC-PVTZ AUX)
    Role: JKFIT
    Keyword: DF_BASIS_SCF
    atoms 1-3 entry S          line   730 file /apps/gb/PSI4/1.4.0/share/psi4/basis/aug-cc-pvtz-jkfit.gbs 

   => Loading Basis Set <=

    Name: AUG-CC-PVTZ
    Role: ORBITAL
    Keyword: BASIS
    atoms 1-3 entry S          line   906 file /apps/gb/PSI4/1.4.0/share/psi4/basis/aug-cc-pvtz.gbs 

  Reading orbitals from file 180, no projection.

  ==> Pre-Iterations <==

   -------------------------------------------------------
    Irrep   Nso     Nmo     Nalpha   Nbeta   Ndocc  Nsocc
   -------------------------------------------------------
     A'        99      99       0       0       0       0
     A"        51      51       0       0       0       0
   -------------------------------------------------------
    Total     150     150      25      25      25       0
   -------------------------------------------------------

  ==> Integral Setup <==

  ==> DiskDFJK: Density-Fitted J/K Matrices <==

    J tasked:                  Yes
    K tasked:                  Yes
    wK tasked:                 Yes
    Omega:               2.000E-01
    OpenMP threads:              1
    Integrals threads:           1
    Memory [MiB]:             6486
    Algorithm:                Core
    Integral Cache:           NONE
    Schwarz Cutoff:          1E-12
    Fitting Condition:       1E-10

   => Auxiliary Basis Set <=

  Basis Set: (AUG-CC-PVTZ AUX)
    Blend: AUG-CC-PVTZ-JKFIT
    Number of shells: 126
    Number of basis function: 438
    Number of Cartesian functions: 540
    Spherical Harmonics?: true
    Max angular momentum: 4

  Cached 100.0% of DFT collocation blocks in 0.651 [GiB].

  Minimum eigenvalue in the overlap matrix is 2.8915882922E-04.
  Using Symmetric Orthogonalization.

  SCF Guess: Orbitals guess was supplied from a previous computation.

  ==> Iterations <==

                           Total Energy        Delta E     RMS |[F,P]|

   @DF-UKS iter   0: -1194.57848248926393   -1.19458e+03   2.64965e-04 
   @DF-UKS iter   1: -1194.58101006852075   -2.52758e-03   3.29979e-05 DIIS
   @DF-UKS iter   2: -1194.58101524283938   -5.17432e-06   2.74103e-05 DIIS
   @DF-UKS iter   3: -1194.58102078793991   -5.54510e-06   5.26872e-06 DIIS
   @DF-UKS iter   4: -1194.58102113983296   -3.51893e-07   2.01347e-06 DIIS
   @DF-UKS iter   5: -1194.58102127926759   -1.39435e-07   6.23915e-07 DIIS
   @DF-UKS iter   6: -1194.58102129132021   -1.20526e-08   2.75378e-07 DIIS
   @DF-UKS iter   7: -1194.58102129418103   -2.86082e-09   1.17941e-07 DIIS
   @DF-UKS iter   8: -1194.58102129457802   -3.96994e-10   4.77450e-08 DIIS
   @DF-UKS iter   9: -1194.58102129465260   -7.45786e-11   2.28641e-08 DIIS
   @DF-UKS iter  10: -1194.58102129466693   -1.43245e-11   6.37905e-09 DIIS
  Energy and wave function converged.


  ==> Post-Iterations <==

   @Spin Contamination Metric:   3.552713679E-15
   @S^2 Expected:                0.000000000E+00
   @S^2 Observed:                3.552713679E-15
   @S   Expected:                0.000000000E+00
   @S   Observed:                0.000000000E+00

    Orbital Energies [Eh]
    ---------------------

    Alpha Occupied:                                                       

       1Ap   -88.728800     2Ap   -88.671616     3Ap   -88.671435  
       4Ap    -7.731570     5Ap    -7.678185     6Ap    -7.677857  
       7Ap    -5.682018     8Ap    -5.678524     1App   -5.671548  
       9Ap    -5.629431    10Ap    -5.629136    11Ap    -5.621363  
      12Ap    -5.621016     2App   -5.620578     3App   -5.620265  
      13Ap    -0.512123    14Ap    -0.399694    15Ap    -0.294541  
      16Ap    -0.088414    17Ap    -0.066846     4App   -0.050620  
       5App    0.036163    18Ap     0.043087    19Ap     0.049707  
       6App    0.098903  

    Alpha Virtual:                                                        

      20Ap     0.273913    21Ap     0.278553    22Ap     0.321683  
      23Ap     0.344793     7App    0.345854    24Ap     0.346955  
       8App    0.354132     9App    0.363629    25Ap     0.364249  
      26Ap     0.386499    27Ap     0.406420    28Ap     0.415383  
      29Ap     0.479267    30Ap     0.487015    10App    0.529965  
      11App    0.552169    31Ap     0.553549    32Ap     0.586374  
      33Ap     0.591973    34Ap     0.596297    12App    0.609916  
      35Ap     0.613950    13App    0.625924    14App    0.655221  
      36Ap     0.661125    37Ap     0.662242    38Ap     0.684518  
      15App    0.700666    39Ap     0.728146    16App    0.803850  
      40Ap     0.829150    41Ap     0.880402    17App    0.880760  
      42Ap     0.896166    43Ap     0.896785    44Ap     0.911085  
      18App    0.912566    19App    0.918297    45Ap     0.927229  
      20App    0.932668    46Ap     0.939907    47Ap     0.967746  
      21App    0.995328    48Ap     0.996696    49Ap     1.002475  
      22App    1.018245    50Ap     1.022525    51Ap     1.032557  
      52Ap     1.045382    23App    1.062569    53Ap     1.103598  
[...]
      13Ap    -0.511747    14Ap    -0.399747    15Ap    -0.294729  
      16Ap    -0.088417    17Ap    -0.066613     4App   -0.050459  
       5App    0.036011    18Ap     0.043144    19Ap     0.049411  
       6App    0.098731  

    Alpha Virtual:                                                        

      20Ap     0.273871    21Ap     0.278575    22Ap     0.321783  
      23Ap     0.344661     7App    0.345782    24Ap     0.346927  
       8App    0.354110     9App    0.363738    25Ap     0.364381  
      26Ap     0.386031    27Ap     0.406348    28Ap     0.415281  
      29Ap     0.479199    30Ap     0.486925    10App    0.529774  
      11App    0.552078    31Ap     0.553087    32Ap     0.586153  
      33Ap     0.592046    34Ap     0.596267    12App    0.610008  
      35Ap     0.614196    13App    0.625500    14App    0.655228  
      36Ap     0.660893    37Ap     0.662332    38Ap     0.684141  
      15App    0.700806    39Ap     0.728304    16App    0.803812  
      40Ap     0.828748    17App    0.880530    41Ap     0.880632  
      42Ap     0.896003    43Ap     0.896497    44Ap     0.911202  
      18App    0.912707    19App    0.918298    45Ap     0.927415  
      20App    0.933068    46Ap     0.939896    47Ap     0.968303  
      21App    0.995335    48Ap     0.996288    49Ap     1.002350  
      22App    1.017982    50Ap     1.022378    51Ap     1.032242  
      52Ap     1.045037    23App    1.061901    53Ap     1.103132  
      24App    1.106399    25App    1.106924    54Ap     1.151610  
      55Ap     1.156651    26App    1.160173    27App    1.162985  
      56Ap     1.176769    57Ap     1.201097    58Ap     1.223326  
      59Ap     1.296271    28App    1.324577    29App    1.344795  
      60Ap     1.376504    61Ap     1.391721    30App    1.393672  
      62Ap     1.471980    31App    1.480817    63Ap     1.505541  
      64Ap     1.522124    65Ap     1.552876    32App    1.565505  
      33App    1.573076    66Ap     1.659978    67Ap     1.661351  
      68Ap     1.762221    69Ap     1.882602    70Ap     2.197012  
      34App    2.207815    35App    2.219552    71Ap     2.236185  
      72Ap     2.258744    36App    2.263598    37App    2.271082  
      73Ap     2.282447    74Ap     2.283296    75Ap     2.350518  
      38App    2.356120    76Ap     2.371588    77Ap     2.409005  
      39App    2.409640    40App    2.410175    78Ap     2.413744  
      41App    2.427770    79Ap     2.443686    80Ap     2.470885  
      42App    2.471682    43App    2.489641    81Ap     2.522212  
      82Ap     2.530578    44App    2.553197    83Ap     2.559407  
      45App    2.565810    84Ap     2.576311    46App    2.640043  
      85Ap     2.644203    47App    2.645409    86Ap     2.652190  
      48App    2.652545    87Ap     2.657062    49App    2.701456  
      88Ap     2.740909    89Ap     2.754078    90Ap     2.794341  
      91Ap     2.820075    92Ap     2.825439    93Ap     2.915123  
      50App    2.929341    51App    2.930056    94Ap     3.022445  
      95Ap     3.958681    96Ap     3.986691    97Ap     4.951076  
      98Ap     5.501930    99Ap     6.018818  

    Beta Occupied:                                                        

       1Ap   -88.728877     2Ap   -88.671707     3Ap   -88.671705  
       4Ap    -7.731619     5Ap    -7.678180     6Ap    -7.678175  
       7Ap    -5.682072     8Ap    -5.678575     1App   -5.671593  
       9Ap    -5.629446    10Ap    -5.629446    11Ap    -5.621348  
      12Ap    -5.621348     2App   -5.620576     3App   -5.620576  
      13Ap    -0.511747    14Ap    -0.399747    15Ap    -0.294729  
      16Ap    -0.088417    17Ap    -0.066613     4App   -0.050459  
       5App    0.036011    18Ap     0.043144    19Ap     0.049411  
       6App    0.098731  

    Beta Virtual:                                                         

      20Ap     0.273871    21Ap     0.278575    22Ap     0.321783  
      23Ap     0.344661     7App    0.345782    24Ap     0.346927  
       8App    0.354110     9App    0.363738    25Ap     0.364381  
      26Ap     0.386031    27Ap     0.406348    28Ap     0.415281  
      29Ap     0.479199    30Ap     0.486925    10App    0.529774  
      11App    0.552078    31Ap     0.553087    32Ap     0.586153  
      33Ap     0.592046    34Ap     0.596267    12App    0.610008  
      35Ap     0.614196    13App    0.625500    14App    0.655228  
      36Ap     0.660893    37Ap     0.662332    38Ap     0.684141  
      15App    0.700806    39Ap     0.728304    16App    0.803812  
      40Ap     0.828748    17App    0.880530    41Ap     0.880632  
      42Ap     0.896003    43Ap     0.896497    44Ap     0.911202  
      18App    0.912707    19App    0.918298    45Ap     0.927415  
      20App    0.933068    46Ap     0.939896    47Ap     0.968303  
      21App    0.995335    48Ap     0.996288    49Ap     1.002350  
      22App    1.017982    50Ap     1.022378    51Ap     1.032242  
      52Ap     1.045037    23App    1.061901    53Ap     1.103132  
      24App    1.106399    25App    1.106924    54Ap     1.151610  
      55Ap     1.156651    26App    1.160173    27App    1.162985  
      56Ap     1.176769    57Ap     1.201097    58Ap     1.223326  
      59Ap     1.296271    28App    1.324577    29App    1.344795  
      60Ap     1.376504    61Ap     1.391721    30App    1.393672  
      62Ap     1.471980    31App    1.480817    63Ap     1.505541  
      64Ap     1.522124    65Ap     1.552876    32App    1.565505  
      33App    1.573076    66Ap     1.659978    67Ap     1.661351  
      68Ap     1.762221    69Ap     1.882602    70Ap     2.197012  
      34App    2.207815    35App    2.219552    71Ap     2.236185  
      72Ap     2.258744    36App    2.263598    37App    2.271082  
      73Ap     2.282447    74Ap     2.283296    75Ap     2.350518  
      38App    2.356120    76Ap     2.371588    77Ap     2.409005  
      39App    2.409640    40App    2.410175    78Ap     2.413744  
      41App    2.427770    79Ap     2.443686    80Ap     2.470885  
      42App    2.471682    43App    2.489641    81Ap     2.522212  
      82Ap     2.530578    44App    2.553197    83Ap     2.559407  
      45App    2.565810    84Ap     2.576311    46App    2.640043  
      85Ap     2.644203    47App    2.645409    86Ap     2.652190  
      48App    2.652545    87Ap     2.657062    49App    2.701456  
      88Ap     2.740909    89Ap     2.754078    90Ap     2.794341  
      91Ap     2.820075    92Ap     2.825439    93Ap     2.915123  
      50App    2.929341    51App    2.930056    94Ap     3.022445  
      95Ap     3.958681    96Ap     3.986691    97Ap     4.951076  
      98Ap     5.501930    99Ap     6.018818  

    Final Occupation by Irrep:
             Ap   App 
    DOCC [    19,    6 ]
    SOCC [     0,    0 ]

  @DF-UKS Final Energy: -1194.58103834021222

   => Energetics <=

    Nuclear Repulsion Energy =            166.8170598602926589
    One-Electron Energy =               -2001.7588291045019560
    Two-Electron Energy =                 696.7747028770249926
    DFT Exchange-Correlation Energy =     -56.4136951519007610
    Empirical Dispersion Energy =          -0.0002768211270631
    VV10 Nonlocal Energy =                  0.0000000000000000
    Total Energy =                      -1194.5810383402122170

  UHF NO Occupations:
  HONO-2 :    6App 2.0000000
  HONO-1 :   18 Ap 2.0000000
  HONO-0 :   19 Ap 2.0000000
  LUNO+0 :   20 Ap 0.0000000
  LUNO+1 :   21 Ap 0.0000000
  LUNO+2 :   22 Ap 0.0000000
  LUNO+3 :   23 Ap 0.0000000


Computation Completed


Properties will be evaluated at   0.000000,   0.000000,   0.000000 [a0]

Properties computed using the SCF density matrix

  Nuclear Dipole Moment: [e a0]
     X:     0.0000      Y:    -0.0000      Z:     0.0000

  Electronic Dipole Moment: [e a0]
     X:     0.6154      Y:     0.4082      Z:     0.0000

  Dipole Moment: [e a0]
     X:     0.6154      Y:     0.4082      Z:     0.0000     Total:     0.7385

  Dipole Moment: [D]
     X:     1.5642      Y:     1.0376      Z:     0.0000     Total:     1.8771


*** tstop() called on c2-18.compute.lan at Tue Feb  2 15:15:54 2021
Module time:
	user time   =      84.67 seconds =       1.41 minutes
	system time =       0.34 seconds =       0.01 minutes
	total time  =         97 seconds =       1.62 minutes
Total time:
	user time   =    1524.22 seconds =      25.40 minutes
	system time =      69.12 seconds =       1.15 minutes
	total time  =       2168 seconds =      36.13 minutes

*** tstart() called on c2-18.compute.lan
*** at Tue Feb  2 15:15:54 2021


         ------------------------------------------------------------
                                   SCF GRAD                          
                          Rob Parrish, Justin Turney,                
                       Andy Simmonett, and Alex Sokolov              
         ------------------------------------------------------------

  ==> Geometry <==

    Molecular point group: cs
    Full point group: Cs

    Geometry (in Angstrom), charge = -2, multiplicity = 1:

       Center              X                  Y                   Z               Mass       
    ------------   -----------------  -----------------  -----------------  -----------------
         S            0.648331373273     0.430082411321     0.000000000000    31.972071174400
         S            0.648514282422    -1.681316224038     0.000000000000    31.972071174400
         S           -1.296845655695     1.251233812717     0.000000000000    31.972071174400

  Nuclear repulsion =  166.817059860292659

  ==> Basis Set <==

  Basis Set: AUG-CC-PVTZ
    Blend: AUG-CC-PVTZ
    Number of shells: 48
    Number of basis function: 150
    Number of Cartesian functions: 177
    Spherical Harmonics?: true
    Max angular momentum: 3

  ==> DFJKGrad: Density-Fitted SCF Gradients <==

    Gradient:                    1
    J tasked:                  Yes
    K tasked:                  Yes
    wK tasked:                 Yes
    Omega:               2.000E-01
    OpenMP threads:              1
    Integrals threads:           1
    Memory [MiB]:             7152
    Schwarz Cutoff:          0E+00
    Fitting Condition:       1E-10

   => Auxiliary Basis Set <=

  Basis Set: (AUG-CC-PVTZ AUX)
    Blend: AUG-CC-PVTZ-JKFIT
    Number of shells: 126
    Number of basis function: 438
    Number of Cartesian functions: 540
    Spherical Harmonics?: true
    Max angular momentum: 4

  ==> DFT Potential <==

   => Composite Functional: WB97X-D <= 

    wB97X-D Hyb-GGA Exchange-Correlation Functional

    J.-D. Chai and M. Head-Gordon, Phys. Chem. Chem. Phys. 10, 6615 (2008)

    Deriv               =              1
    GGA                 =           TRUE
    Meta                =          FALSE

    Exchange Hybrid     =           TRUE
    MP2 Hybrid          =          FALSE

   => Exchange-Correlation Functionals <=

    1.0000   wB97D range-separated functional

   => Exact (HF) Exchange <=

    0.7780            HF,LR [omega = 0.2000]
    0.2220               HF 

   => Molecular Quadrature <=

    Radial Scheme          =       TREUTLER
    Pruning Scheme         =           NONE
    Nuclear Scheme         =       TREUTLER

    BS radius alpha        =              1
    Pruning alpha          =              1
    Radial Points          =             99
    Spherical Points       =            590
    Total Points           =         170023
    Total Blocks           =           1396
    Max Points             =            256
    Max Functions          =            150
    Weights Tolerance      =       1.00E-15


  -Total Gradient:
     Atom            X                  Y                   Z
    ------   -----------------  -----------------  -----------------
       1        0.000061189686     0.000040638328     0.000000000000
       2        0.000012870958    -0.000073651607     0.000000000000
       3       -0.000062807550     0.000040478119     0.000000000000


*** tstop() called on c2-18.compute.lan at Tue Feb  2 15:16:16 2021
Module time:
	user time   =      19.85 seconds =       0.33 minutes
	system time =       0.08 seconds =       0.00 minutes
	total time  =         22 seconds =       0.37 minutes
Total time:
	user time   =    1544.07 seconds =      25.73 minutes
	system time =      69.21 seconds =       1.15 minutes
	total time  =       2190 seconds =      36.50 minutes

         ----------------------------------------------------------
                                   FINDIF
                     R. A. King and Jonathon Misiewicz
         ---------------------------------------------------------

  Computing second-derivative from gradients using projected, 
  symmetry-adapted, cartesian coordinates.

  7 gradients passed in, including the reference geometry.
  Generating complete list of displacements from unique ones.


-------------------------------------------------------------


  ==> Harmonic Vibrational Analysis <==

  non-mass-weighted Hessian:       Symmetric? True   Hermitian? True   Lin Dep Dim?  6 (0)
  projection of translations (True) and rotations (True) removed 6 degrees of freedom (6)
  total projector:                 Symmetric? True   Hermitian? True   Lin Dep Dim?  6 (6)
  mass-weighted Hessian:           Symmetric? True   Hermitian? True   Lin Dep Dim?  6 (0)
  pre-proj  low-frequency mode:    0.0000i [cm^-1]
  pre-proj  low-frequency mode:    0.0000i [cm^-1]
  pre-proj  low-frequency mode:    0.0000  [cm^-1]
  pre-proj  low-frequency mode:    0.0000  [cm^-1]
  pre-proj  low-frequency mode:    0.0000  [cm^-1]
  pre-proj  low-frequency mode:    0.0000  [cm^-1]
  pre-proj  all modes:['0.0000i' '0.0000i' '0.0000' '0.0000' '0.0000' '0.0000' '192.2603'
 '455.7847' '472.0065']
  projected mass-weighted Hessian: Symmetric? True   Hermitian? True   Lin Dep Dim?  6 (6)
  post-proj low-frequency mode:    0.0000i [cm^-1] (TR)
  post-proj low-frequency mode:    0.0000i [cm^-1] (TR)
  post-proj low-frequency mode:    0.0000  [cm^-1] (TR)
  post-proj low-frequency mode:    0.0000  [cm^-1] (TR)
  post-proj low-frequency mode:    0.0000  [cm^-1] (TR)
  post-proj low-frequency mode:    0.0000  [cm^-1] (TR)
  post-proj  all modes:['0.0000i' '0.0000i' '0.0000' '0.0000' '0.0000' '0.0000' '192.2603'
 '455.7847' '472.0065']

  Vibration                       7                   8                   9           
  Freq [cm^-1]                 192.2603            455.7847            472.0065       
  Irrep                           Ap                  Ap                  Ap          
  Reduced mass [u]             31.9721             31.9721             31.9721        
  Force const [mDyne/A]         0.6963              3.9133              4.1968        
  Turning point v=0 [a0]        0.1400              0.0909              0.0893        
  RMS dev v=0 [a0 u^1/2]        0.5596              0.3634              0.3571        
  Char temp [K]                276.6198            655.7726            679.1123       
  ----------------------------------------------------------------------------------
      1   S               -0.38 -0.25 -0.00    0.56  0.37 -0.00   -0.42  0.64 -0.00   
      2   S                0.51 -0.36  0.00   -0.06 -0.52 -0.00   -0.00 -0.46  0.00   
      3   S               -0.13  0.61  0.00   -0.50  0.14 -0.00    0.42 -0.18  0.00   

  ==> Thermochemistry Components <==

  Entropy, S
    Electronic S            0.000 [cal/(mol K)]        0.000 [J/(mol K)]       0.00000000 [mEh/K] (multiplicity = 1)
    Translational S        39.594 [cal/(mol K)]      165.660 [J/(mol K)]       0.06309659 [mEh/K] (mol. weight = 95.9162 [u], P = 101325.00 [Pa])
    Rotational S           25.588 [cal/(mol K)]      107.059 [J/(mol K)]       0.04077655 [mEh/K] (symmetry no. = 1)
    Vibrational S           3.716 [cal/(mol K)]       15.549 [J/(mol K)]       0.00592237 [mEh/K]
  Total S                  68.898 [cal/(mol K)]      288.268 [J/(mol K)]       0.10979551 [mEh/K]
  Correction S              0.000 [cal/(mol K)]        0.000 [J/(mol K)]       0.00000000 [mEh/K]

  Constant volume heat capacity, Cv
    Electronic Cv           0.000 [cal/(mol K)]        0.000 [J/(mol K)]       0.00000000 [mEh/K]
    Translational Cv        2.981 [cal/(mol K)]       12.472 [J/(mol K)]       0.00475022 [mEh/K]
    Rotational Cv           2.981 [cal/(mol K)]       12.472 [J/(mol K)]       0.00475022 [mEh/K]
    Vibrational Cv          4.511 [cal/(mol K)]       18.873 [J/(mol K)]       0.00718848 [mEh/K]
  Total Cv                 10.472 [cal/(mol K)]       43.817 [J/(mol K)]       0.01668892 [mEh/K]
  Correction Cv             0.000 [cal/(mol K)]        0.000 [J/(mol K)]       0.00000000 [mEh/K]

  Constant pressure heat capacity, Cp
    Electronic Cp           0.000 [cal/(mol K)]        0.000 [J/(mol K)]       0.00000000 [mEh/K]
    Translational Cp        4.968 [cal/(mol K)]       20.786 [J/(mol K)]       0.00791703 [mEh/K]
    Rotational Cp           2.981 [cal/(mol K)]       12.472 [J/(mol K)]       0.00475022 [mEh/K]
    Vibrational Cp          4.511 [cal/(mol K)]       18.873 [J/(mol K)]       0.00718848 [mEh/K]
  Total Cp                 12.460 [cal/(mol K)]       52.131 [J/(mol K)]       0.01985573 [mEh/K]
  Correction Cp             0.000 [cal/(mol K)]        0.000 [J/(mol K)]       0.00000000 [mEh/K]

  ==> Thermochemistry Energy Analysis <==

  Raw electronic energy, E0
  Total E0, Electronic energy at well bottom at 0 [K]                -1194.58103840 [Eh]

  Zero-point energy, ZPE_vib = Sum_i nu_i / 2
    Electronic ZPE          0.000 [kcal/mol]        0.000 [kJ/mol]       0.00000000 [Eh]
    Translational ZPE       0.000 [kcal/mol]        0.000 [kJ/mol]       0.00000000 [Eh]
    Rotational ZPE          0.000 [kcal/mol]        0.000 [kJ/mol]       0.00000000 [Eh]
    Vibrational ZPE         1.601 [kcal/mol]        6.699 [kJ/mol]       0.00255166 [Eh]         560.026 [cm^-1]
  Correction ZPE            1.601 [kcal/mol]        6.699 [kJ/mol]       0.00255166 [Eh]         560.026 [cm^-1]
  Total ZPE, Electronic energy at 0 [K]                              -1194.57848674 [Eh]

  Thermal Energy, E (includes ZPE)
    Electronic E            0.000 [kcal/mol]        0.000 [kJ/mol]       0.00000000 [Eh]
    Translational E         0.889 [kcal/mol]        3.718 [kJ/mol]       0.00141628 [Eh]
    Rotational E            0.889 [kcal/mol]        3.718 [kJ/mol]       0.00141628 [Eh]
    Vibrational E           2.277 [kcal/mol]        9.528 [kJ/mol]       0.00362921 [Eh]
  Correction E              4.055 [kcal/mol]       16.965 [kJ/mol]       0.00646176 [Eh]
  Total E, Electronic energy at  298.15 [K]                          -1194.57457664 [Eh]

  Enthalpy, H_trans = E_trans + k_B * T
    Electronic H            0.000 [kcal/mol]        0.000 [kJ/mol]       0.00000000 [Eh]
    Translational H         1.481 [kcal/mol]        6.197 [kJ/mol]       0.00236046 [Eh]
    Rotational H            0.889 [kcal/mol]        3.718 [kJ/mol]       0.00141628 [Eh]
    Vibrational H           2.277 [kcal/mol]        9.528 [kJ/mol]       0.00362921 [Eh]
  Correction H              4.647 [kcal/mol]       19.444 [kJ/mol]       0.00740595 [Eh]
  Total H, Enthalpy at  298.15 [K]                                   -1194.57363246 [Eh]

  Gibbs free energy, G = H - T * S
    Electronic G            0.000 [kcal/mol]        0.000 [kJ/mol]       0.00000000 [Eh]
    Translational G       -10.324 [kcal/mol]      -43.194 [kJ/mol]      -0.01645179 [Eh]
    Rotational G           -6.740 [kcal/mol]      -28.201 [kJ/mol]      -0.01074125 [Eh]
    Vibrational G           1.169 [kcal/mol]        4.892 [kJ/mol]       0.00186345 [Eh]
  Correction G            -15.895 [kcal/mol]      -66.503 [kJ/mol]      -0.02532958 [Eh]
  Total G, Free enthalpy at  298.15 [K]                              -1194.60636799 [Eh]

    Psi4 stopped on: Tuesday, 02 February 2021 03:16PM
    Psi4 wall time for execution: 0:36:30.80

*** Psi4 exiting successfully. Buy a developer a beer!
