
    -----------------------------------------------------------------------
          Psi4: An Open-Source Ab Initio Electronic Structure Package
                               Psi4 1.3.2 release

                         Git: Rev {HEAD} ecbda83 


    R. M. Parrish, L. A. Burns, D. G. A. Smith, A. C. Simmonett,
    A. E. DePrince III, E. G. Hohenstein, U. Bozkaya, A. Yu. Sokolov,
    R. Di Remigio, R. M. Richard, J. F. Gonthier, A. M. James,
    H. R. McAlexander, A. Kumar, M. Saitow, X. Wang, B. P. Pritchard,
    P. Verma, H. F. Schaefer III, K. Patkowski, R. A. King, E. F. Valeev,
    F. A. Evangelista, J. M. Turney, T. D. Crawford, and C. D. Sherrill,
    J. Chem. Theory Comput. 13(7) pp 3185--3197 (2017).
    (doi: 10.1021/acs.jctc.7b00174)


                         Additional Contributions by
    P. Kraus, H. Kruse, M. H. Lechner, M. C. Schieber, R. A. Shaw,
    A. Alenaizan, R. Galvelis, Z. L. Glick, S. Lehtola, and J. P. Misiewicz

    -----------------------------------------------------------------------


    Psi4 started on: Friday, 05 March 2021 03:38PM

    Process ID: 112269
    Host:       c5-12.compute.lan
    PSIDATADIR: /apps/gb/PSI4/1.3.2/share/psi4
    Memory:     500.0 MiB
    Threads:    12
    
  ==> Input File <==

--------------------------------------------------------------------------
memory 46 GB

basis jerome {
assign pot
assign S aug-cc-pV(T+d)Z

[pot]
spherical
****
 K  0
 S 23 1.00
    2.709796E+07     4.136110E-07
    3.592856E+06     3.860330E-06
    7.222638E+05     2.394640E-05
    1.833976E+05     1.157540E-04
    5.464812E+04     4.697010E-04
    1.830913E+04     1.673720E-03
    6.712501E+03     5.370450E-03
    2.643719E+03     1.572510E-02
    1.103835E+03     4.193360E-02
    4.836777E+02     9.987620E-02
    2.206245E+02     2.019680E-01
    1.041117E+02     3.146270E-01
    5.052749E+01     3.107540E-01
    2.485247E+01     1.421920E-01
    1.128102E+01     1.658490E-02
    5.510166E+00    -2.759760E-04
    2.706914E+00     5.158310E-04
    1.122807E+00    -2.268950E-04
    5.236385E-01     6.652980E-05
    2.355180E-01    -3.685150E-05
    4.157977E-02     1.925250E-05
    2.555456E-02    -2.108420E-05
    1.471495E-02     7.044600E-06
 S 23 1.00
    2.709796E+07    -1.188290E-07
    3.592856E+06    -1.108550E-06
    7.222638E+05    -6.881230E-06
    1.833976E+05    -3.324150E-05
    5.464812E+04    -1.350850E-04
    1.830913E+04    -4.814570E-04
    6.712501E+03    -1.552620E-03
    2.643719E+03    -4.578330E-03
    1.103835E+03    -1.247930E-02
    4.836777E+02    -3.094650E-02
    2.206245E+02    -6.855530E-02
    1.041117E+02    -1.268300E-01
    5.052749E+01    -1.745020E-01
    2.485247E+01    -9.089560E-02
    1.128102E+01     2.506960E-01
    5.510166E+00     5.589630E-01
    2.706914E+00     3.284370E-01
    1.122807E+00     3.392170E-02
    5.236385E-01    -2.100280E-03
    2.355180E-01     1.383960E-03
    4.157977E-02    -5.315630E-04
    2.555456E-02     5.770310E-04
    1.471495E-02    -1.931440E-04
 S 23 1.00
    2.709796E+07     3.917470E-08
    3.592856E+06     3.650640E-07
    7.222638E+05     2.269460E-06
    1.833976E+05     1.094290E-05
    5.464812E+04     4.457360E-05
    1.830913E+04     1.584480E-04
    6.712501E+03     5.128440E-04
    2.643719E+03     1.507690E-03
    1.103835E+03     4.136940E-03
    4.836777E+02     1.024690E-02
    2.206245E+02     2.306520E-02
    1.041117E+02     4.308900E-02
    5.052749E+01     6.238120E-02
    2.485247E+01     3.270420E-02
    1.128102E+01    -1.021980E-01
    5.510166E+00    -3.317970E-01
    2.706914E+00    -3.030100E-01
    1.122807E+00     3.098410E-01
    5.236385E-01     6.732700E-01
    2.355180E-01     2.812200E-01
    4.157977E-02     9.376240E-03
    2.555456E-02    -6.955720E-03
    1.471495E-02     2.069460E-03
 S 23 1.00
    2.709796E+07    -7.564440E-09
    3.592856E+06    -7.055390E-08
    7.222638E+05    -4.380820E-07
    1.833976E+05    -2.115540E-06
    5.464812E+04    -8.601300E-06
    1.830913E+04    -3.064440E-05
    6.712501E+03    -9.892550E-05
    2.643719E+03    -2.917760E-04
    1.103835E+03    -7.977860E-04
    4.836777E+02    -1.985820E-03
    2.206245E+02    -4.449740E-03
    1.041117E+02    -8.390260E-03
    5.052749E+01    -1.206000E-02
    2.485247E+01    -6.568410E-03
    1.128102E+01     2.061430E-02
    5.510166E+00     6.770060E-02
    2.706914E+00     6.639570E-02
    1.122807E+00    -8.237770E-02
    5.236385E-01    -1.727150E-01
    2.355180E-01    -2.310290E-01
    4.157977E-02     5.090040E-01
    2.555456E-02     3.472180E-01
    1.471495E-02     2.809620E-01
 S 1 1.00
    2.555456E-02     1.000000E+00
 S 1 1.00
    1.471495E-02     1.000000E+00
 S 1 1.00
    8.470000E-03     1.000000E+00
 P 16 1.00
    9.533309E+03     4.212010E-05
    1.852081E+03     5.068300E-04
    5.464251E+02     3.311700E-03
    1.966947E+02     1.536840E-02
    7.964112E+01     5.457060E-02
    3.488324E+01     1.473880E-01
    1.604479E+01     2.879240E-01
    7.575632E+00     3.750810E-01
    3.672548E+00     2.545160E-01
    1.771130E+00     6.059280E-02
    8.515199E-01     2.508370E-03
    4.016017E-01     6.688870E-04
    1.851933E-01    -1.486150E-04
    5.523390E-02     4.936010E-05
    2.431085E-02    -3.513850E-05
    1.080339E-02     1.171450E-05
 P 16 1.00
    9.533309E+03    -1.280760E-05
    1.852081E+03    -1.547870E-04
    5.464251E+02    -1.010940E-03
    1.966947E+02    -4.738330E-03
    7.964112E+01    -1.703260E-02
    3.488324E+01    -4.754130E-02
    1.604479E+01    -9.560810E-02
    7.575632E+00    -1.337000E-01
    3.672548E+00    -7.425060E-02
    1.771130E+00     1.646810E-01
    8.515199E-01     4.057630E-01
    4.016017E-01     4.113600E-01
    1.851933E-01     1.734240E-01
    5.523390E-02     1.253640E-02
    2.431085E-02    -3.267140E-03
    1.080339E-02     1.039680E-03
 P 16 1.00
    9.533309E+03     1.764010E-06
    1.852081E+03     2.124880E-05
    5.464251E+02     1.392500E-04
    1.966947E+02     6.509140E-04
    7.964112E+01     2.349940E-03
    3.488324E+01     6.547470E-03
    1.604479E+01     1.326270E-02
    7.575632E+00     1.848520E-02
    3.672548E+00     1.025530E-02
    1.771130E+00    -2.652150E-02
    8.515199E-01    -6.086460E-02
    4.016017E-01    -7.474220E-02
    1.851933E-01    -4.870880E-02
    5.523390E-02     2.245720E-01
    2.431085E-02     5.839280E-01
    1.080339E-02     2.980960E-01
 P 1 1.00
    5.523390E-02     1.000000E+00
 P 1 1.00
    1.080339E-02     1.000000E+00
 P 1 1.00
    4.800000E-03     1.000000E+00
 D 6 1.00
    5.670903E+00     8.285900E-03
    1.459042E+00     2.332530E-02
    5.431827E-01     4.878080E-02
    1.346875E-01     7.349020E-02
    5.516013E-02     2.387630E-01
    1.501876E-02     8.253200E-01
 D 1 1.00
    5.516013E-02     1.000000E+00
 D 1 1.00
    1.501876E-02     1.000000E+00
 D 1 1.00
    6.010000E-03     1.000000E+00
 F 1 1.00
    8.493750E-02     1.000000E+00
 F 1 1.00
    3.398000E-02     1.000000E+00
 ****
}

molecule  {
0 2
S   -1.195529930300    1.038586945600    0.000000000000
S   -1.195168831000   -1.038397844600    0.000000000000
K    1.961712522900   -0.000155168800    0.000000000000
}
set {
basis jerome
reference uhf
g_convergence gau_verytight
e_convergence 10
scf_type pk
freeze_core true
geom_maxiter 100
}

set ccenergy {
e_convergence 10
r_convergence 10
}

e = energy('ccsd(t)')

print_out('Stephenergy {}'.format(e))

--------------------------------------------------------------------------

  Memory set to  42.841 GiB by Python driver.

*** tstart() called on c5-12.compute.lan
*** at Fri Mar  5 15:38:38 2021

   => Loading Basis Set <=

    Name: JEROME
    Role: ORBITAL
    Keyword: BASIS
    atoms 1-2 entry S          line   928 file /apps/gb/PSI4/1.3.2/share/psi4/basis/aug-cc-pv_tpd_z.gbs 
    atoms 3   entry K          line     5 inputblock pot 


         ---------------------------------------------------------
                                   SCF
               by Justin Turney, Rob Parrish, Andy Simmonett
                          and Daniel G. A. Smith
                              UHF Reference
                       12 Threads,  43869 MiB Core
         ---------------------------------------------------------

  ==> Geometry <==

    Molecular point group: cs
    Full point group: Cs

    Geometry (in Angstrom), charge = 0, multiplicity = 2:

       Center              X                  Y                   Z               Mass       
    ------------   -----------------  -----------------  -----------------  -----------------
         S           -1.195529930301     1.038586945609     0.000000000000    31.972071174400
         S           -1.195168831001    -1.038397844591     0.000000000000    31.972071174400
         K            1.961712522899    -0.000155168791     0.000000000000    38.963706486400

  Running in cs symmetry.

  Rotational constants: A =      0.24445  B =      0.06986  C =      0.05433 [cm^-1]
  Rotational constants: A =   7328.41099  B =   2094.29791  C =   1628.81779 [MHz]
  Nuclear repulsion =  162.032197238364205

  Charge       = 0
  Multiplicity = 2
  Electrons    = 51
  Nalpha       = 26
  Nbeta        = 25

  ==> Algorithm <==

  SCF Algorithm Type is PK.
  DIIS enabled.
  MOM disabled.
  Fractional occupation disabled.
  Guess Type is SAD.
  Energy threshold   = 1.00e-10
  Density threshold  = 1.00e-08
  Integral threshold = 0.00e+00

  ==> Primary Basis <==

  Basis Set: JEROME
    Blend: AUG-CC-PV(T+D)Z + POT
    Number of shells: 53
    Number of basis function: 169
    Number of Cartesian functions: 199
    Spherical Harmonics?: true
    Max angular momentum: 3

  ==> Pre-Iterations <==

   -------------------------------------------------------
    Irrep   Nso     Nmo     Nalpha   Nbeta   Ndocc  Nsocc
   -------------------------------------------------------
     A'       111     111       0       0       0       0
     A"        58      58       0       0       0       0
   -------------------------------------------------------
    Total     169     169      26      25      25       1
   -------------------------------------------------------

  ==> Integral Setup <==

  Using in-core PK algorithm.
   Calculation information:
      Number of atoms:                   3
      Number of AO shells:              53
      Number of primitives:            287
      Number of atomic orbitals:       199
      Number of basis functions:       169

      Integral cutoff                 1.00e-12
      Number of threads:                12

  Performing in-core PK
  Using 206367590 doubles for integral storage.
  We computed 1579723 shell quartets total.
  Whereas there are 1024596 unique shell quartets.
    54.18 percent of shell quartets recomputed by reordering.

  ==> DiskJK: Disk-Based J/K Matrices <==

    J tasked:                  Yes
    K tasked:                  Yes
    wK tasked:                  No
    Memory [MiB]:            32901
    Schwarz Cutoff:          1E-12

    OpenMP threads:             12

  Minimum eigenvalue in the overlap matrix is 2.3836222809E-04.
  Using Symmetric Orthogonalization.

  SCF Guess: Superposition of Atomic Densities via on-the-fly atomic UHF.

  ==> Iterations <==

                        Total Energy        Delta E     RMS |[F,P]|

   @UHF iter SAD: -1393.47805383554532   -1.39348e+03   0.00000e+00 
   @UHF iter   1: -1394.26888877838360   -7.90835e-01   1.99494e-03 DIIS
   @UHF iter   2: -1394.30798126956847   -3.90925e-02   7.13671e-04 DIIS
   @UHF iter   3: -1394.31225759207518   -4.27632e-03   2.20663e-04 DIIS
   @UHF iter   4: -1394.31322582211715   -9.68230e-04   9.43487e-05 DIIS
   @UHF iter   5: -1394.31342932880352   -2.03507e-04   2.45944e-05 DIIS
   @UHF iter   6: -1394.31344792360551   -1.85948e-05   7.25320e-06 DIIS
   @UHF iter   7: -1394.31344983627878   -1.91267e-06   2.83343e-06 DIIS
   @UHF iter   8: -1394.31345016137038   -3.25092e-07   1.45877e-06 DIIS
   @UHF iter   9: -1394.31345027608927   -1.14719e-07   8.31697e-07 DIIS
   @UHF iter  10: -1394.31345032916556   -5.30763e-08   4.40977e-07 DIIS
   @UHF iter  11: -1394.31345034706828   -1.79027e-08   2.58690e-07 DIIS
   @UHF iter  12: -1394.31345035449749   -7.42921e-09   1.10457e-07 DIIS
   @UHF iter  13: -1394.31345035561162   -1.11413e-09   4.97251e-08 DIIS
   @UHF iter  14: -1394.31345035571780   -1.06184e-10   1.92373e-08 DIIS
   @UHF iter  15: -1394.31345035574122   -2.34195e-11   1.16542e-08 DIIS
   @UHF iter  16: -1394.31345035574873   -7.50333e-12   8.72578e-09 DIIS
  Energy and wave function converged.


  ==> Post-Iterations <==

   @Spin Contamination Metric:   3.677114848E-02
   @S^2 Expected:                7.500000000E-01
   @S^2 Observed:                7.867711485E-01
   @S   Expected:                5.000000000E-01
   @S   Observed:                5.000000000E-01

    Orbital Energies [Eh]
    ---------------------

    Alpha Occupied:                                                       

       1Ap  -133.559636     2Ap   -91.906658     3Ap   -91.906634  
       4Ap   -14.515892     1App  -11.545909     5Ap   -11.545826  
       6Ap   -11.545752     7Ap    -8.904167     8Ap    -8.903996  
       2App   -6.593156     3App   -6.593124     9Ap    -6.583046  
      10Ap    -6.582678    11Ap    -6.581492    12Ap    -6.581462  
      13Ap    -1.773858     4App   -0.982953    14Ap    -0.981737  
      15Ap    -0.981387    16Ap    -0.944567    17Ap    -0.757581  
       5App   -0.414017    18Ap    -0.402816    19Ap    -0.386162  
       6App   -0.296054    20Ap    -0.260635  

    Alpha Virtual:                                                        

      21Ap    -0.019897     7App    0.002172    22Ap     0.002630  
      23Ap     0.005694    24Ap     0.016457     8App    0.017141  
      25Ap     0.017264     9App    0.019895    26Ap     0.020823  
      27Ap     0.022363    10App    0.022865    28Ap     0.028726  
      29Ap     0.032855    30Ap     0.051011    11App    0.051140  
      31Ap     0.055475    12App    0.058849    32Ap     0.061864  
      13App    0.073586    33Ap     0.074484    34Ap     0.088214  
      35Ap     0.104500    36Ap     0.108401    37Ap     0.125502  
      14App    0.125672    38Ap     0.128646    39Ap     0.128778  
      15App    0.129773    16App    0.133149    40Ap     0.133832  
      41Ap     0.150441    17App    0.152720    42Ap     0.153540  
      18App    0.167036    43Ap     0.170547    44Ap     0.174855  
      19App    0.178461    20App    0.186399    45Ap     0.206761  
      46Ap     0.207622    47Ap     0.221462    21App    0.233526  
      48Ap     0.244624    49Ap     0.267889    50Ap     0.310685  
      51Ap     0.310900    22App    0.337533    52Ap     0.350660  
      53Ap     0.362710    23App    0.375762    24App    0.381784  
      54Ap     0.383546    25App    0.386399    55Ap     0.391627  
      56Ap     0.391665    26App    0.394179    57Ap     0.406260  
      27App    0.407374    58Ap     0.428280    59Ap     0.431056  
      60Ap     0.439844    28App    0.452911    29App    0.456748  
      61Ap     0.463018    30App    0.466736    62Ap     0.488105  
      63Ap     0.514868    64Ap     0.537790    31App    0.666905  
      32App    0.703407    65Ap     0.709174    33App    0.711251  
      66Ap     0.730750    67Ap     0.746996    68Ap     0.785638  
      34App    0.801246    69Ap     0.814113    70Ap     0.815391  
      35App    0.850863    71Ap     0.856550    72Ap     0.870939  
      36App    0.892199    73Ap     0.909467    37App    0.914800  
      74Ap     0.947800    75Ap     0.948259    76Ap     0.962249  
      38App    1.012355    77Ap     1.018995    39App    1.048290  
      78Ap     1.052825    79Ap     1.078940    40App    1.161785  
      80Ap     1.197077    81Ap     1.197715    41App    1.202532  
      82Ap     1.218624    42App    1.363509    83Ap     1.395146  
      84Ap     1.462032    85Ap     1.677230    43App    2.031402  
      86Ap     2.036059    44App    2.064606    87Ap     2.067245  
      45App    2.078997    88Ap     2.096725    89Ap     2.132278  
      46App    2.214704    90Ap     2.284195    47App    2.287188  
      91Ap     2.291863    92Ap     2.312092    93Ap     2.372240  
      48App    2.378923    94Ap     2.413097    49App    2.421754  
      95Ap     2.450564    96Ap     2.473465    50App    2.485713  
      51App    2.504876    52App    2.561255    97Ap     2.581510  
      53App    2.584911    98Ap     2.668794    99Ap     2.685599  
     100Ap     2.707505   101Ap     2.726372    54App    2.867629  
     102Ap     2.898817   103Ap     3.989664   104Ap     4.955396  
     105Ap     5.750116    55App    7.416980   106Ap     7.419756  
     107Ap     7.436043    56App    7.436320    57App    7.438717  
     108Ap     7.461729    58App    7.509628   109Ap     7.532324  
     110Ap     7.597088   111Ap     7.607866  

    Beta Occupied:                                                        

       1Ap  -133.559658     2Ap   -91.901068     3Ap   -91.901047  
       4Ap   -14.515922     1App  -11.545943     5Ap   -11.545860  
       6Ap   -11.545783     7Ap    -8.898091     8Ap    -8.897883  
       9Ap    -6.580345    10Ap    -6.579964    11Ap    -6.577949  
      12Ap    -6.577921     2App   -6.568683     3App   -6.568645  
      13Ap    -1.774020     4App   -0.983113    14Ap    -0.981884  
      15Ap    -0.980410    16Ap    -0.906284    17Ap    -0.686969  
      18Ap    -0.386899    19Ap    -0.377631     5App   -0.289276  
      20Ap    -0.247637  

    Beta Virtual:                                                         

      21Ap    -0.019908     6App    0.002202    22Ap     0.002644  
      23Ap     0.005682    24Ap     0.016451     7App    0.016970  
      25Ap     0.017265     8App    0.019936    26Ap     0.020847  
      27Ap     0.022412     9App    0.022958    28Ap     0.028728  
      29Ap     0.032765    10App    0.046988    30Ap     0.050978  
      31Ap     0.055744    11App    0.059304    32Ap     0.061831  
      12App    0.065040    13App    0.073769    33Ap     0.074678  
      34Ap     0.087876    35Ap     0.104283    36Ap     0.110109  
      37Ap     0.125703    14App    0.125788    38Ap     0.128608  
      39Ap     0.129630    15App    0.129696    40Ap     0.133877  
      16App    0.134980    41Ap     0.150299    42Ap     0.153792  
      17App    0.164162    18App    0.171847    43Ap     0.172107  
      44Ap     0.174534    19App    0.183763    20App    0.187115  
      45Ap     0.207578    46Ap     0.212240    47Ap     0.224268  
      21App    0.233745    48Ap     0.245238    49Ap     0.267060  
      50Ap     0.313721    51Ap     0.317305    52Ap     0.351906  
      22App    0.356527    53Ap     0.366881    54Ap     0.383856  
      23App    0.384533    24App    0.388641    25App    0.389657  
      55Ap     0.391531    56Ap     0.395667    26App    0.396030  
      27App    0.407417    57Ap     0.408614    58Ap     0.430935  
      59Ap     0.433710    60Ap     0.442862    28App    0.462595  
      61Ap     0.468797    29App    0.470023    30App    0.475465  
      62Ap     0.488988    63Ap     0.518474    64Ap     0.538516  
      31App    0.686391    65Ap     0.716926    66Ap     0.736529  
      32App    0.739677    33App    0.741862    67Ap     0.749447  
      68Ap     0.798401    69Ap     0.814386    34App    0.818288  
      70Ap     0.831405    71Ap     0.868858    35App    0.885479  
      72Ap     0.895476    73Ap     0.915073    36App    0.921880  
      37App    0.925268    74Ap     0.951510    75Ap     0.960373  
      76Ap     0.966086    38App    1.024776    77Ap     1.030034  
      78Ap     1.054749    39App    1.058865    79Ap     1.085282  
      40App    1.173961    80Ap     1.196781    81Ap     1.207184  
      41App    1.209099    82Ap     1.220716    42App    1.379676  
      83Ap     1.397179    84Ap     1.474930    85Ap     1.692656  
      43App    2.046624    86Ap     2.050778    44App    2.079651  
      87Ap     2.082268    45App    2.094925    88Ap     2.098896  
      89Ap     2.134477    46App    2.236760    90Ap     2.289040  
      91Ap     2.294014    47App    2.303966    92Ap     2.314879  
      93Ap     2.385274    48App    2.391638    94Ap     2.425152  
      49App    2.454125    95Ap     2.461903    96Ap     2.495821  
      50App    2.508720    51App    2.531929    52App    2.585806  
      97Ap     2.597704    53App    2.601184    98Ap     2.674319  
      99Ap     2.690101   100Ap     2.711985   101Ap     2.732182  
      54App    2.888729   102Ap     2.901527   103Ap     3.993166  
     104Ap     4.966565   105Ap     5.760456    55App    7.423177  
     106Ap     7.426080   107Ap     7.442574    56App    7.442840  
      57App    7.444774   108Ap     7.462807    58App    7.515586  
     109Ap     7.533204   110Ap     7.599028   111Ap     7.609750  

    Final Occupation by Irrep:
             Ap   App 
    DOCC [    20,    5 ]
    SOCC [     0,    1 ]

  @UHF Final Energy: -1394.31345035574873

   => Energetics <=

    Nuclear Repulsion Energy =            162.0321972383642048
    One-Electron Energy =               -2249.2812152042952221
    Two-Electron Energy =                 692.9355676101822610
    Total Energy =                      -1394.3134503557489552

  UHF NO Occupations:
  HONO-2 :   20 Ap 1.9974861
  HONO-1 :    5App 1.9869047
  HONO-0 :    6App 1.0000000
  LUNO+0 :    7App 0.0130953
  LUNO+1 :   21 Ap 0.0025139
  LUNO+2 :   22 Ap 0.0022668
  LUNO+3 :   23 Ap 0.0003117


Computation Completed


Properties will be evaluated at   0.000000,   0.000000,   0.000000 [a0]

Properties computed using the SCF density matrix

  Nuclear Dipole Moment: [e a0]
     X:    -1.8494      Y:     0.0001      Z:     0.0000

  Electronic Dipole Moment: [e a0]
     X:     6.6348      Y:    -0.0002      Z:     0.0000

  Dipole Moment: [e a0]
     X:     4.7855      Y:    -0.0001      Z:     0.0000     Total:     4.7855

  Dipole Moment: [D]
     X:    12.1634      Y:    -0.0002      Z:     0.0000     Total:    12.1634


*** tstop() called on c5-12.compute.lan at Fri Mar  5 15:39:30 2021
Module time:
	user time   =     211.19 seconds =       3.52 minutes
	system time =       1.34 seconds =       0.02 minutes
	total time  =         52 seconds =       0.87 minutes
Total time:
	user time   =     211.19 seconds =       3.52 minutes
	system time =       1.34 seconds =       0.02 minutes
	total time  =         52 seconds =       0.87 minutes
 MINTS: Wrapper to libmints.
   by Justin Turney

   Calculation information:
      Number of threads:                12
      Number of atoms:                   3
      Number of AO shells:              53
      Number of SO shells:              53
      Number of primitives:            287
      Number of atomic orbitals:       199
      Number of basis functions:       169

      Number of irreps:                  2
      Integral cutoff                 0.00e+00
      Number of functions per irrep: [ 111   58 ]

 OEINTS: Overlap, kinetic, potential, dipole, and quadrupole integrals
         stored in file 35.

      Computing two-electron integrals...done
      Computed 51031882 non-zero two-electron integrals.
        Stored in file 33.


*** tstart() called on c5-12.compute.lan
*** at Fri Mar  5 15:40:48 2021


	Wfn Parameters:
	--------------------
	Wavefunction         = CCSD_T
	Number of irreps     = 2
	Number of MOs        = 169
	Number of active MOs = 150
	AO-Basis             = NONE
	Semicanonical        = false
	Reference            = UHF
	Print Level          = 1

	IRREP	# MOs	# FZDC	# DOCC	# SOCC	# VIRT	# FZVR
	-----	-----	------	------	------	------	------
	 Ap	   111	    15	    5	    0	    91	    0
	 App	   58	    4	    1	    1	    52	    0
	Transforming integrals...
	IWL integrals will be deleted.
	(OO|OO)...
	Presorting SO-basis two-electron integrals.
	Sorting File: SO Ints (nn|nn) nbuckets = 1
	Transforming the one-electron integrals and constructing Fock matrices
	Starting AA/AB first half-transformation.
	Sorting AA/AB half-transformed integrals.
	Starting BB first half-transformation.
	Sorting BB half-transformed integrals.
	First half integral transformation complete.
	Starting AA second half-transformation.
	Starting AB second half-transformation.
	Starting BB second half-transformation.
	Two-electron integral transformation complete.
	(OO|OV)...
	Starting AA second half-transformation.
	Starting AB second half-transformation.
	Starting BB second half-transformation.
	Two-electron integral transformation complete.
	(OO|VV)...
	Starting AA second half-transformation.
	Starting AB second half-transformation.
	Starting BB second half-transformation.
	Two-electron integral transformation complete.
	(OV|OO)...
	Starting AA/AB first half-transformation.
	Sorting AA/AB half-transformed integrals.
	Starting BB first half-transformation.
	Sorting BB half-transformed integrals.
	First half integral transformation complete.
	Starting AA second half-transformation.
	Starting AB second half-transformation.
	Starting BB second half-transformation.
	Two-electron integral transformation complete.
	(OV|OV)...
	Starting AA second half-transformation.
	Starting AB second half-transformation.
	Starting BB second half-transformation.
	Two-electron integral transformation complete.
	(OV|VV)...
	Starting AA second half-transformation.
	Starting AB second half-transformation.
	Starting BB second half-transformation.
	Two-electron integral transformation complete.
	(VV|OO)...
	Starting AA/AB first half-transformation.
	Sorting AA/AB half-transformed integrals.
	Starting BB first half-transformation.
	Sorting BB half-transformed integrals.
	First half integral transformation complete.
	Starting AA second half-transformation.
	Starting AB second half-transformation.
	Starting BB second half-transformation.
	Two-electron integral transformation complete.
	(VV|OV)...
	Starting AA second half-transformation.
	Starting AB second half-transformation.
	Starting BB second half-transformation.
	Two-electron integral transformation complete.
	(VV|VV)...
	Starting AA second half-transformation.
	Starting AB second half-transformation.
	Starting BB second half-transformation.
	Two-electron integral transformation complete.
	Frozen core energy     =  -1525.23004493426174

	Size of irrep 0 of <AB|CD> integrals:     29.387 (MW) /    235.098 (MB)
	Size of irrep 1 of <AB|CD> integrals:     22.392 (MW) /    179.135 (MB)
	Total:                                    51.779 (MW) /    414.233 (MB)

	Size of irrep 0 of <ab|cd> integrals:     29.954 (MW) /    239.630 (MB)
	Size of irrep 1 of <ab|cd> integrals:     23.261 (MW) /    186.091 (MB)
	Total:                                    53.215 (MW) /    425.720 (MB)

	Size of irrep 0 of <Ab|Cd> integrals:    121.815 (MW) /    974.523 (MB)
	Size of irrep 1 of <Ab|Cd> integrals:     91.298 (MW) /    730.384 (MB)
	Total:                                   213.113 (MW) /   1704.907 (MB)

	Size of irrep 0 of <IA|BC> integrals:      6.141 (MW) /     49.125 (MB)
	Size of irrep 1 of <IA|BC> integrals:      4.183 (MW) /     33.465 (MB)
	Total:                                    10.324 (MW) /     82.590 (MB)

	Size of irrep 0 of <ia|bc> integrals:      5.634 (MW) /     45.070 (MB)
	Size of irrep 1 of <ia|bc> integrals:      3.434 (MW) /     27.472 (MB)
	Total:                                     9.068 (MW) /     72.542 (MB)

	Size of irrep 0 of <Ia|Bc> integrals:      6.192 (MW) /     49.534 (MB)
	Size of irrep 1 of <Ia|Bc> integrals:      4.271 (MW) /     34.169 (MB)
	Total:                                    10.463 (MW) /     83.703 (MB)

	Size of irrep 0 of <iA|bC> integrals:      5.596 (MW) /     44.766 (MB)
	Size of irrep 1 of <iA|bC> integrals:      3.354 (MW) /     26.830 (MB)
	Total:                                     8.950 (MW) /     71.597 (MB)

	Size of irrep 0 of tIjAb amplitudes:       0.298 (MW) /      2.384 (MB)
	Size of irrep 1 of tIjAb amplitudes:       0.143 (MW) /      1.147 (MB)
	Total:                                     0.441 (MW) /      3.531 (MB)

	Nuclear Rep. energy          =    162.03219723836420
	SCF energy                   =  -1394.31345035574873
	One-electron energy          =    -55.87467655465039
	Two-electron (AA) energy     =      6.08210083803337
	Two-electron (BB) energy     =      4.34723259580634
	Two-electron (AB) energy     =     14.32974046095254
	Two-electron energy          =     24.75907389479224
	Reference energy             =  -1394.31345035575555

*** tstop() called on c5-12.compute.lan at Fri Mar  5 15:42:46 2021
Module time:
	user time   =     142.45 seconds =       2.37 minutes
	system time =      29.74 seconds =       0.50 minutes
	total time  =        118 seconds =       1.97 minutes
Total time:
	user time   =     433.66 seconds =       7.23 minutes
	system time =      32.29 seconds =       0.54 minutes
	total time  =        248 seconds =       4.13 minutes
            **************************
            *                        *
            *        CCENERGY        *
            *                        *
            **************************

    Nuclear Rep. energy (wfn)     =  162.032197238364205
    SCF energy          (wfn)     = -1394.313450355748728
    Reference energy    (file100) = -1394.313450355755549

    Input parameters:
    -----------------
    Wave function   =     CCSD_T
    Reference wfn   =     UHF
    Brueckner       =     No
    Memory (Mbytes) =     46000.0
    Maxiter         =     50
    R_Convergence   =     1.0e-10
    E_Convergence   =     1.0e-10
    Restart         =     Yes
    DIIS            =     Yes
    AO Basis        =     NONE
    ABCD            =     NEW
    Cache Level     =     2
    Cache Type      =     LRU
    Print Level     =     1
    Num. of threads =     12
    # Amps to Print =     10
    Print MP2 Amps? =     No
    Analyze T2 Amps =     No
    Print Pair Ener =     No
    Local CC        =     No
    SCS-MP2         =     False
    SCSN-MP2        =     False
    SCS-CCSD        =     False

MP2 correlation energy -0.3450598405094175
                Solving CC Amplitude Equations
                ------------------------------
  Iter             Energy              RMS        T1Diag      D1Diag    New D1Diag    D2Diag
  ----     ---------------------    ---------   ----------  ----------  ----------   --------
     0        -0.345059840509417    0.000e+00    0.000000    0.000000    0.000000    0.000000
     1        -0.358626963055067    8.245e-02    0.015919    0.000000    0.000000    0.000000
     2        -0.369287946296699    2.599e-02    0.018543    0.000000    0.000000    0.000000
     3        -0.371475086758152    1.235e-02    0.022079    0.000000    0.000000    0.000000
     4        -0.371359645545421    3.433e-03    0.023157    0.000000    0.000000    0.000000
     5        -0.371324775905940    1.414e-03    0.023439    0.000000    0.000000    0.000000
     6        -0.371318397011464    6.113e-04    0.023526    0.000000    0.000000    0.000000
     7        -0.371315137380611    3.087e-04    0.023553    0.000000    0.000000    0.000000
     8        -0.371316270802803    1.660e-04    0.023558    0.000000    0.000000    0.000000
     9        -0.371319923268328    9.466e-05    0.023559    0.000000    0.000000    0.000000
    10        -0.371318500879171    5.122e-05    0.023561    0.000000    0.000000    0.000000
    11        -0.371318325165911    2.254e-05    0.023560    0.000000    0.000000    0.000000
    12        -0.371317950904059    1.096e-05    0.023561    0.000000    0.000000    0.000000
    13        -0.371317769755291    5.455e-06    0.023561    0.000000    0.000000    0.000000
    14        -0.371317765149545    2.986e-06    0.023561    0.000000    0.000000    0.000000
    15        -0.371317769424323    1.869e-06    0.023561    0.000000    0.000000    0.000000
    16        -0.371317769414631    1.049e-06    0.023561    0.000000    0.000000    0.000000
    17        -0.371317773737017    5.859e-07    0.023561    0.000000    0.000000    0.000000
    18        -0.371317774099845    2.806e-07    0.023561    0.000000    0.000000    0.000000
    19        -0.371317773914481    1.350e-07    0.023561    0.000000    0.000000    0.000000
    20        -0.371317774304610    7.458e-08    0.023561    0.000000    0.000000    0.000000
    21        -0.371317774212132    4.296e-08    0.023561    0.000000    0.000000    0.000000
    22        -0.371317774166844    2.397e-08    0.023561    0.000000    0.000000    0.000000
    23        -0.371317774122464    1.294e-08    0.023561    0.000000    0.000000    0.000000
    24        -0.371317774079438    7.766e-09    0.023561    0.000000    0.000000    0.000000
    25        -0.371317774092368    4.493e-09    0.023561    0.000000    0.000000    0.000000
    26        -0.371317774111801    2.648e-09    0.023561    0.000000    0.000000    0.000000
    27        -0.371317774113200    1.508e-09    0.023561    0.000000    0.000000    0.000000
    28        -0.371317774112564    9.460e-10    0.023561    0.000000    0.000000    0.000000
    29        -0.371317774111039    5.717e-10    0.023561    0.000000    0.000000    0.000000
    30        -0.371317774108681    2.840e-10    0.023561    0.000000    0.000000    0.000000
    31        -0.371317774108408    1.508e-10    0.023561    0.000000    0.000000    0.000000
    32        -0.371317774109082    7.959e-11    0.023561    0.000000    0.000000    0.000000

    Iterations converged.


    Largest TIA Amplitudes:
              5 106        -0.0250803430
              5 116         0.0132688462
              3  31         0.0126037729
              2  48         0.0125182208
              5 107        -0.0112390329
              6 101         0.0111590117
              5 102        -0.0099419812
              2  36         0.0094576934
              2  50        -0.0092420594
              2  28         0.0077868236

    Largest Tia Amplitudes:
              5 117        -0.0246288893
              5 107         0.0212030922
              5 103         0.0188159879
              5 109         0.0147884019
              5 116        -0.0140009257
              3  31         0.0134505162
              2  48         0.0112230279
              1  26        -0.0109107917
              5 108         0.0103961756
              2  29        -0.0101729882

    Largest TIJAB Amplitudes:
      6   2 106  24         0.0150148845
      4   2  31  24         0.0134093091
      6   2 116  24        -0.0125011666
      6   2 106  29        -0.0110532781
      5   3 107  30         0.0102948462
      4   2  46  24        -0.0096670755
      6   2 116  29         0.0095327874
      5   2 116  44        -0.0093788275
      6   4 119  49         0.0092281543
      6   4 106  31        -0.0090018206

    Largest Tijab Amplitudes:
      5   2  97  25        -0.0278148048
      5   2  97  26        -0.0227549161
      5   2  97  30         0.0197316571
      5   4  97  31         0.0168232546
      5   2  97  22         0.0156363956
      5   2  95  25        -0.0154365596
      5   2  97  15         0.0134787209
      4   2  31  25         0.0128065161
      5   2  95  26        -0.0126351208
      5   4  97  36         0.0114655141

    Largest TIjAb Amplitudes:
      2   5  24  97        -0.0363907668
      2   2  24  25        -0.0301044521
      6   5 106  97         0.0272878670
      2   2  24  26        -0.0238374770
      2   2  24  30         0.0209279537
      2   5  22  97        -0.0206687746
      6   5 116  97        -0.0204683436
      2   5  24  95        -0.0201521899
      2   5  15  97         0.0173536798
      2   5  29  97         0.0172104360

    SCF energy       (wfn)                    = -1394.313450355748728
    Reference energy (file100)                = -1394.313450355755549

    Opposite-spin MP2 correlation energy      =   -0.257372367442910
    Same-spin MP2 correlation energy          =   -0.087687473066507
    MP2 correlation energy                    =   -0.345059840509417
      * MP2 total energy                      = -1394.658510196265070

    Opposite-spin CCSD correlation energy     =   -0.289659898895104
    Same-spin CCSD correlation energy         =   -0.081657875213978
    CCSD correlation energy                   =   -0.371317774109082
      * CCSD total energy                     = -1394.684768129864551

            **************************
            *                        *
            *        CCTRIPLES       *
            *                        *
            **************************


    Wave function   =    CCSD_T
    Reference wfn   =      UHF

    Nuclear Rep. energy (wfn)                =  162.032197238364205
    SCF energy          (wfn)                = -1394.313450355748728
    Reference energy    (file100)            = -1394.313450355755549
    CCSD energy         (file100)            =   -0.371317774109082
    Total CCSD energy   (file100)            = -1394.684768129864551

    Number of ijk index combinations:
    Spin Case AAA:                                  35
    Spin Case BBB:                                  20
    Spin Case AAB:                                 126
    Spin Case ABB:                                 105
    AAA (T) energy                             =   -0.000563557305107
    BBB (T) energy                             =   -0.000656580379281
    AAB (T) energy                             =   -0.010575050260786
    ABB (T) energy                             =   -0.010299480812106
    (T) energy                                   =   -0.022094668757280
      * CCSD(T) total energy                     = -1394.706862798621842

Stephenergy -1394.7068627986218
    Psi4 stopped on: Friday, 05 March 2021 03:46PM
    Psi4 wall time for execution: 0:07:26.55

*** Psi4 exiting successfully. Buy a developer a beer!
