
Host: ss-sub2.gacrc.uga.edu

Timers On : Fri Mar  5 14:32:04 2021
Timers Off: Fri Mar  5 17:11:16 2021

Wall Time:     9552.52 seconds

                                                       Time (seconds)
Module                                       User      System        Wall        Calls

--------------------------------------------------------------------------------------

**************************************************************************************
