
    -----------------------------------------------------------------------
          Psi4: An Open-Source Ab Initio Electronic Structure Package
                               Psi4 1.4a2.dev191 

                         Git: Rev {master} 0ab5346 


    R. M. Parrish, L. A. Burns, D. G. A. Smith, A. C. Simmonett,
    A. E. DePrince III, E. G. Hohenstein, U. Bozkaya, A. Yu. Sokolov,
    R. Di Remigio, R. M. Richard, J. F. Gonthier, A. M. James,
    H. R. McAlexander, A. Kumar, M. Saitow, X. Wang, B. P. Pritchard,
    P. Verma, H. F. Schaefer III, K. Patkowski, R. A. King, E. F. Valeev,
    F. A. Evangelista, J. M. Turney, T. D. Crawford, and C. D. Sherrill,
    J. Chem. Theory Comput. 13(7) pp 3185--3197 (2017).
    (doi: 10.1021/acs.jctc.7b00174)


                         Additional Contributions by
    P. Kraus, H. Kruse, M. H. Lechner, M. C. Schieber, R. A. Shaw,
    A. Alenaizan, R. Galvelis, Z. L. Glick, S. Lehtola, and J. P. Misiewicz

    -----------------------------------------------------------------------


    Psi4 started on: Tuesday, 02 February 2021 02:39PM

    Process ID: 108093
    Host:       c2-18.compute.lan
    PSIDATADIR: /apps/gb/PSI4/1.4.0/share/psi4
    Memory:     500.0 MiB
    Threads:    1
    
  ==> Input File <==

--------------------------------------------------------------------------
memory 10 GB

molecule  {
-2 1
S
S 1 r1
S 1 r2 2 a1
r1 = 2.0
r2 = 2.1
a1 = 120.0
}

set {
reference uks
basis aug-cc-pvtz
g_convergence gau_verytight
dft_spherical_points 590
dft_radial_points 99
}

optimize('wb97m-v')
frequencies('wb97m-v')

--------------------------------------------------------------------------

  Memory set to   9.313 GiB by Python driver.
gradient() will perform gradient computation by finite difference of analytic energies.

         ----------------------------------------------------------
                                   FINDIF
                     R. A. King and Jonathon Misiewicz
         ---------------------------------------------------------

  Using finite-differences of energies to determine gradients.
    Generating geometries for use with 3-point formula.
    Displacement size will be 5.00e-03.
    Number of atoms is 3.
    Number of symmetric SALCs is 3.
    Translations projected? 1. Rotations projected? 1.
    Number of geometries (including reference) is 7.

  //>>>>>>>>>>>>>>>>>>>>>>>>>>>>>>>>>>>//
  //    Loading displacement 1 of 7    //
  //<<<<<<<<<<<<<<<<<<<<<<<<<<<<<<<<<<<//

*** tstart() called on c2-18.compute.lan
*** at Tue Feb  2 14:39:47 2021

   => Loading Basis Set <=

    Name: AUG-CC-PVTZ
    Role: ORBITAL
    Keyword: BASIS
    atoms 1-3 entry S          line   906 file /apps/gb/PSI4/1.4.0/share/psi4/basis/aug-cc-pvtz.gbs 


         ---------------------------------------------------------
                                   SCF
               by Justin Turney, Rob Parrish, Andy Simmonett
                          and Daniel G. A. Smith
                              UKS Reference
                        1 Threads,   9536 MiB Core
         ---------------------------------------------------------

  ==> Geometry <==

    Molecular point group: cs
    Full point group: Cs

    Geometry (in Angstrom), charge = -2, multiplicity = 1:

       Center              X                  Y                   Z               Mass       
    ------------   -----------------  -----------------  -----------------  -----------------
         S            0.606217782649     0.316666666667     0.000000000000    31.972071174400
         S            0.606217782649    -1.683333333333     0.000000000000    31.972071174400
         S           -1.212435565298     1.366666666667     0.000000000000    31.972071174400

  Running in cs symmetry.

  Rotational constants: A =      0.75413  B =      0.08359  C =      0.07525 [cm^-1]
  Rotational constants: A =  22608.14975  B =   2506.04720  C =   2255.97858 [MHz]
  Nuclear repulsion =  170.392939668640480

  Charge       = -2
  Multiplicity = 1
  Electrons    = 50
  Nalpha       = 25
  Nbeta        = 25

  ==> Algorithm <==

  SCF Algorithm Type is DF.
  DIIS enabled.
  MOM disabled.
  Fractional occupation disabled.
  Guess Type is SAD.
  Energy threshold   = 1.00e-08
  Density threshold  = 1.00e-08
  Integral threshold = 0.00e+00

  ==> Primary Basis <==

  Basis Set: AUG-CC-PVTZ
    Blend: AUG-CC-PVTZ
    Number of shells: 48
    Number of basis function: 150
    Number of Cartesian functions: 177
    Spherical Harmonics?: true
    Max angular momentum: 3

  ==> DFT Potential <==

   => Composite Functional: WB97M-V <= 

    wB97M-V Hyb-GGA Exchange-Correlation Functional

    N. Mardirossian and M. Head-Gordon, J. Chem. Phys. 144, 214110 (2016)

    Deriv               =              1
    GGA                 =           TRUE
    Meta                =           TRUE

    Exchange Hybrid     =           TRUE
    MP2 Hybrid          =          FALSE

   => Exchange-Correlation Functionals <=

    1.0000   wB97M-V exchange-correlation functional

   => Exact (HF) Exchange <=

    0.8500            HF,LR [omega = 0.3000]
    0.1500               HF 

   => VV10 Non-Local Parameters <=

    VV10 B              =     6.0000E+00
    VV10 C              =     1.0000E-02

   => Molecular Quadrature <=

    Radial Scheme          =       TREUTLER
    Pruning Scheme         =           NONE
    Nuclear Scheme         =       TREUTLER

    BS radius alpha        =              1
    Pruning alpha          =              1
    Radial Points          =             99
    Spherical Points       =            590
    Total Points           =         169927
    Total Blocks           =           1392
    Max Points             =            256
    Max Functions          =            150
    Weights Tolerance      =       1.00E-15

   => Loading Basis Set <=

    Name: (AUG-CC-PVTZ AUX)
    Role: JKFIT
    Keyword: DF_BASIS_SCF
    atoms 1-3 entry S          line   730 file /apps/gb/PSI4/1.4.0/share/psi4/basis/aug-cc-pvtz-jkfit.gbs 

  ==> Pre-Iterations <==

   -------------------------------------------------------
    Irrep   Nso     Nmo     Nalpha   Nbeta   Ndocc  Nsocc
   -------------------------------------------------------
     A'        99      99       0       0       0       0
     A"        51      51       0       0       0       0
   -------------------------------------------------------
    Total     150     150      25      25      25       0
   -------------------------------------------------------

  ==> Integral Setup <==

  ==> DiskDFJK: Density-Fitted J/K Matrices <==

    J tasked:                  Yes
    K tasked:                  Yes
    wK tasked:                 Yes
    Omega:               3.000E-01
    OpenMP threads:              1
    Integrals threads:           1
    Memory [MiB]:             5488
    Algorithm:                Core
    Integral Cache:           NONE
    Schwarz Cutoff:          1E-12
    Fitting Condition:       1E-10

   => Auxiliary Basis Set <=

  Basis Set: (AUG-CC-PVTZ AUX)
    Blend: AUG-CC-PVTZ-JKFIT
    Number of shells: 126
    Number of basis function: 438
    Number of Cartesian functions: 540
    Spherical Harmonics?: true
    Max angular momentum: 4

  Cached 100.0% of DFT collocation blocks in 1.625 [GiB].

  Minimum eigenvalue in the overlap matrix is 2.2915518432E-04.
  Using Symmetric Orthogonalization.

  SCF Guess: Superposition of Atomic Densities via on-the-fly atomic UHF.

  ==> Iterations <==

                           Total Energy        Delta E     RMS |[F,P]|

   @DF-UKS iter SAD: -1194.00650497719971   -1.19401e+03   0.00000e+00 
   @DF-UKS iter   1: -1194.33760398485947   -3.31099e-01   4.85186e-03 DIIS
   @DF-UKS iter   2: -1194.43364025035453   -9.60363e-02   3.86379e-03 DIIS
   @DF-UKS iter   3: -1194.52917178351800   -9.55315e-02   3.98391e-04 DIIS
   @DF-UKS iter   4: -1194.53052382101350   -1.35204e-03   1.34867e-04 DIIS
   @DF-UKS iter   5: -1194.53075050893904   -2.26688e-04   6.27795e-05 DIIS
   @DF-UKS iter   6: -1194.53079318442542   -4.26755e-05   1.88088e-05 DIIS
   @DF-UKS iter   7: -1194.53080072606645   -7.54164e-06   6.66412e-06 DIIS
   @DF-UKS iter   8: -1194.53080230992055   -1.58385e-06   2.76600e-06 DIIS
   @DF-UKS iter   9: -1194.53080266675079   -3.56830e-07   9.11209e-07 DIIS
   @DF-UKS iter  10: -1194.53080270877399   -4.20232e-08   4.76165e-07 DIIS
   @DF-UKS iter  11: -1194.53080271296722   -4.19323e-09   1.58999e-07 DIIS
   @DF-UKS iter  12: -1194.53080271353156   -5.64341e-10   3.57631e-08 DIIS
   @DF-UKS iter  13: -1194.53080271358886   -5.72982e-11   1.19224e-08 DIIS
   @DF-UKS iter  14: -1194.53080271359977   -1.09139e-11   5.52735e-09 DIIS
  Energy and wave function converged.


  ==> Post-Iterations <==

   @Spin Contamination Metric:   3.907985047E-14
   @S^2 Expected:                0.000000000E+00
   @S^2 Observed:                3.907985047E-14
   @S   Expected:                0.000000000E+00
   @S   Observed:                0.000000000E+00

    Orbital Energies [Eh]
    ---------------------

    Alpha Occupied:                                                       

       1Ap   -88.872847     2Ap   -88.821463     3Ap   -88.820056  
       4Ap    -7.781400     5Ap    -7.734061     6Ap    -7.731156  
       7Ap    -5.692510     8Ap    -5.688980     1App   -5.682959  
       9Ap    -5.645506    10Ap    -5.642897    11Ap    -5.638689  
       2App   -5.637801    12Ap    -5.635645     3App   -5.635010  
      13Ap    -0.548005    14Ap    -0.429313    15Ap    -0.303956  
      16Ap    -0.105809    17Ap    -0.082140     4App   -0.072113  
       5App    0.021775    18Ap     0.034526    19Ap     0.041253  
       6App    0.099108  

    Alpha Virtual:                                                        

      20Ap     0.255560    21Ap     0.260551    22Ap     0.307350  
      23Ap     0.331463     7App    0.334998    24Ap     0.335723  
       8App    0.343090     9App    0.346098    25Ap     0.346917  
      26Ap     0.392875    27Ap     0.403772    28Ap     0.434171  
      29Ap     0.471706    30Ap     0.496267    10App    0.527078  
      31Ap     0.544373    11App    0.555128    32Ap     0.582388  
      33Ap     0.593639    34Ap     0.597772    12App    0.616780  
      35Ap     0.618287    13App    0.618954    36Ap     0.650288  
      14App    0.650462    37Ap     0.658800    38Ap     0.681588  
      15App    0.700853    39Ap     0.727892    16App    0.803668  
      40Ap     0.820389    41Ap     0.871167    17App    0.875065  
      42Ap     0.884251    43Ap     0.890137    44Ap     0.906868  
      18App    0.917558    19App    0.919673    45Ap     0.927714  
      46Ap     0.931808    20App    0.938124    47Ap     0.971238  
      48Ap     0.996477    21App    1.002881    49Ap     1.007777  
      22App    1.018960    50Ap     1.024558    51Ap     1.043644  
      52Ap     1.064423    23App    1.066163    24App    1.104083  
      53Ap     1.106969    25App    1.130309    54Ap     1.153160  
      26App    1.155234    55Ap     1.159155    27App    1.177069  
      56Ap     1.205769    57Ap     1.219952    58Ap     1.225347  
      59Ap     1.298959    28App    1.307757    29App    1.350200  
      60Ap     1.376682    30App    1.411198    61Ap     1.415173  
      62Ap     1.479822    31App    1.482198    63Ap     1.493153  
      64Ap     1.533783    65Ap     1.552661    32App    1.576094  
      33App    1.584219    66Ap     1.682250    67Ap     1.684957  
      68Ap     1.756721    69Ap     1.870785    70Ap     2.176095  
      34App    2.191237    35App    2.206958    71Ap     2.215239  
      36App    2.245867    72Ap     2.250078    73Ap     2.258072  
      37App    2.260227    74Ap     2.287188    75Ap     2.334132  
      38App    2.336349    76Ap     2.356987    77Ap     2.375899  
      39App    2.391505    78Ap     2.393393    40App    2.403904  
      41App    2.419460    79Ap     2.421763    42App    2.451437  
      80Ap     2.460764    43App    2.481567    81Ap     2.501813  
      82Ap     2.521969    44App    2.541856    83Ap     2.546515  
      45App    2.552078    84Ap     2.559124    46App    2.620479  
      85Ap     2.630525    47App    2.646276    86Ap     2.649526  
      87Ap     2.666657    48App    2.682271    49App    2.730655  
      88Ap     2.763744    89Ap     2.781882    90Ap     2.824638  
      91Ap     2.843495    92Ap     2.877257    50App    2.919607  
      93Ap     2.942011    51App    2.990048    94Ap     3.085397  
      95Ap     3.971898    96Ap     4.081724    97Ap     5.156178  
      98Ap     5.561410    99Ap     6.031772  

    Beta Occupied:                                                        

       1Ap   -88.872847     2Ap   -88.821463     3Ap   -88.820056  
       4Ap    -7.781400     5Ap    -7.734061     6Ap    -7.731156  
       7Ap    -5.692510     8Ap    -5.688980     1App   -5.682959  
       9Ap    -5.645506    10Ap    -5.642897    11Ap    -5.638689  
       2App   -5.637801    12Ap    -5.635645     3App   -5.635010  
      13Ap    -0.548005    14Ap    -0.429313    15Ap    -0.303956  
      16Ap    -0.105809    17Ap    -0.082140     4App   -0.072113  
       5App    0.021775    18Ap     0.034526    19Ap     0.041253  
       6App    0.099108  

    Beta Virtual:                                                         

      20Ap     0.255560    21Ap     0.260551    22Ap     0.307350  
      23Ap     0.331463     7App    0.334998    24Ap     0.335723  
       8App    0.343090     9App    0.346098    25Ap     0.346917  
      26Ap     0.392875    27Ap     0.403772    28Ap     0.434171  
      29Ap     0.471706    30Ap     0.496267    10App    0.527078  
      31Ap     0.544373    11App    0.555128    32Ap     0.582388  
      33Ap     0.593639    34Ap     0.597772    12App    0.616780  
      35Ap     0.618287    13App    0.618954    36Ap     0.650288  
      14App    0.650462    37Ap     0.658800    38Ap     0.681588  
      15App    0.700853    39Ap     0.727892    16App    0.803668  
      40Ap     0.820389    41Ap     0.871167    17App    0.875065  
      42Ap     0.884251    43Ap     0.890137    44Ap     0.906868  
      18App    0.917558    19App    0.919673    45Ap     0.927714  
      46Ap     0.931808    20App    0.938124    47Ap     0.971238  
      48Ap     0.996477    21App    1.002881    49Ap     1.007777  
      22App    1.018960    50Ap     1.024558    51Ap     1.043644  
      52Ap     1.064423    23App    1.066163    24App    1.104083  
      53Ap     1.106969    25App    1.130309    54Ap     1.153160  
      26App    1.155234    55Ap     1.159155    27App    1.177069  
      56Ap     1.205769    57Ap     1.219952    58Ap     1.225347  
      59Ap     1.298959    28App    1.307757    29App    1.350200  
      60Ap     1.376682    30App    1.411198    61Ap     1.415173  
      62Ap     1.479822    31App    1.482198    63Ap     1.493153  
      64Ap     1.533783    65Ap     1.552661    32App    1.576094  
      33App    1.584219    66Ap     1.682250    67Ap     1.684957  
      68Ap     1.756721    69Ap     1.870785    70Ap     2.176095  
      34App    2.191237    35App    2.206958    71Ap     2.215239  
      36App    2.245867    72Ap     2.250078    73Ap     2.258072  
      37App    2.260227    74Ap     2.287188    75Ap     2.334132  
      38App    2.336349    76Ap     2.356987    77Ap     2.375899  
      39App    2.391505    78Ap     2.393393    40App    2.403904  
      41App    2.419460    79Ap     2.421763    42App    2.451437  
      80Ap     2.460764    43App    2.481567    81Ap     2.501813  
      82Ap     2.521969    44App    2.541856    83Ap     2.546515  
      45App    2.552078    84Ap     2.559124    46App    2.620479  
      85Ap     2.630525    47App    2.646276    86Ap     2.649526  
      87Ap     2.666657    48App    2.682271    49App    2.730655  
      88Ap     2.763744    89Ap     2.781882    90Ap     2.824638  
      91Ap     2.843495    92Ap     2.877257    50App    2.919607  
      93Ap     2.942011    51App    2.990048    94Ap     3.085397  
      95Ap     3.971898    96Ap     4.081724    97Ap     5.156178  
      98Ap     5.561410    99Ap     6.031772  

    Final Occupation by Irrep:
             Ap   App 
    DOCC [    19,    6 ]
    SOCC [     0,    0 ]

  @DF-UKS Final Energy: -1194.53080271359977

   => Energetics <=

    Nuclear Repulsion Energy =            170.3929396686404800
    One-Electron Energy =               -2008.5848820867777249
    Two-Electron Energy =                 703.0024514399691498
    DFT Exchange-Correlation Energy =     -59.5439090589326909
    Empirical Dispersion Energy =           0.0000000000000000
    VV10 Nonlocal Energy =                  0.2025973235007987
    Total Energy =                      -1194.5308027135999964

  UHF NO Occupations:
  HONO-2 :   17 Ap 2.0000000
  HONO-1 :   18 Ap 2.0000000
  HONO-0 :   19 Ap 2.0000000
  LUNO+0 :   20 Ap 0.0000000
  LUNO+1 :   21 Ap 0.0000000
  LUNO+2 :   22 Ap 0.0000000
  LUNO+3 :   23 Ap 0.0000000


Computation Completed


Properties will be evaluated at   0.000000,   0.000000,   0.000000 [a0]

Properties computed using the SCF density matrix

  Nuclear Dipole Moment: [e a0]
     X:     0.0000      Y:    -0.0000      Z:     0.0000

  Electronic Dipole Moment: [e a0]
     X:     0.7010      Y:     0.2243      Z:     0.0000

  Dipole Moment: [e a0]
     X:     0.7010      Y:     0.2243      Z:     0.0000     Total:     0.7360

  Dipole Moment: [D]
     X:     1.7819      Y:     0.5700      Z:     0.0000     Total:     1.8708


*** tstop() called on c2-18.compute.lan at Tue Feb  2 14:48:31 2021
Module time:
	user time   =     284.09 seconds =       4.73 minutes
	system time =      12.28 seconds =       0.20 minutes
	total time  =        524 seconds =       8.73 minutes
Total time:
	user time   =     284.09 seconds =       4.73 minutes
	system time =      12.28 seconds =       0.20 minutes
	total time  =        524 seconds =       8.73 minutes

  //>>>>>>>>>>>>>>>>>>>>>>>>>>>>>>>>>>>//
  //    Loading displacement 2 of 7    //
  //<<<<<<<<<<<<<<<<<<<<<<<<<<<<<<<<<<<//

*** tstart() called on c2-18.compute.lan
*** at Tue Feb  2 14:48:31 2021

   => Loading Basis Set <=

    Name: AUG-CC-PVTZ
    Role: ORBITAL
    Keyword: BASIS
    atoms 1-3 entry S          line   906 file /apps/gb/PSI4/1.4.0/share/psi4/basis/aug-cc-pvtz.gbs 


         ---------------------------------------------------------
                                   SCF
               by Justin Turney, Rob Parrish, Andy Simmonett
                          and Daniel G. A. Smith
                              UKS Reference
                        1 Threads,   9536 MiB Core
         ---------------------------------------------------------

  ==> Geometry <==

    Molecular point group: cs
    Full point group: Cs

    Geometry (in Angstrom), charge = -2, multiplicity = 1:

       Center              X                  Y                   Z               Mass       
    ------------   -----------------  -----------------  -----------------  -----------------
         S            0.605839838422     0.316650793508     0.000000000000    31.972071174400
         S            0.606366824283    -1.683349206492     0.000000000000    31.972071174400
         S           -1.212206662705     1.366698412984     0.000000000000    31.972071174400

  Running in cs symmetry.

  Rotational constants: A =      0.75486  B =      0.08359  C =      0.07526 [cm^-1]
  Rotational constants: A =  22630.03950  B =   2506.05749  C =   2256.20469 [MHz]
  Nuclear repulsion =  170.408352754223131

  Charge       = -2
  Multiplicity = 1
  Electrons    = 50
  Nalpha       = 25
  Nbeta        = 25

  ==> Algorithm <==

  SCF Algorithm Type is DF.
  DIIS enabled.
  MOM disabled.
  Fractional occupation disabled.
  Guess Type is SAD.
  Energy threshold   = 1.00e-08
  Density threshold  = 1.00e-08
  Integral threshold = 0.00e+00

  ==> Primary Basis <==

  Basis Set: AUG-CC-PVTZ
    Blend: AUG-CC-PVTZ
    Number of shells: 48
    Number of basis function: 150
    Number of Cartesian functions: 177
    Spherical Harmonics?: true
    Max angular momentum: 3

  ==> DFT Potential <==

   => Composite Functional: WB97M-V <= 

    wB97M-V Hyb-GGA Exchange-Correlation Functional

    N. Mardirossian and M. Head-Gordon, J. Chem. Phys. 144, 214110 (2016)

    Deriv               =              1
    GGA                 =           TRUE
    Meta                =           TRUE

    Exchange Hybrid     =           TRUE
    MP2 Hybrid          =          FALSE

   => Exchange-Correlation Functionals <=

    1.0000   wB97M-V exchange-correlation functional

   => Exact (HF) Exchange <=

    0.8500            HF,LR [omega = 0.3000]
    0.1500               HF 

   => VV10 Non-Local Parameters <=

    VV10 B              =     6.0000E+00
    VV10 C              =     1.0000E-02

   => Molecular Quadrature <=

    Radial Scheme          =       TREUTLER
    Pruning Scheme         =           NONE
    Nuclear Scheme         =       TREUTLER

    BS radius alpha        =              1
    Pruning alpha          =              1
    Radial Points          =             99
    Spherical Points       =            590
    Total Points           =         169930
    Total Blocks           =           1395
    Max Points             =            256
    Max Functions          =            150
    Weights Tolerance      =       1.00E-15

   => Loading Basis Set <=

    Name: (AUG-CC-PVTZ AUX)
    Role: JKFIT
    Keyword: DF_BASIS_SCF
    atoms 1-3 entry S          line   730 file /apps/gb/PSI4/1.4.0/share/psi4/basis/aug-cc-pvtz-jkfit.gbs 

  ==> Pre-Iterations <==

   -------------------------------------------------------
    Irrep   Nso     Nmo     Nalpha   Nbeta   Ndocc  Nsocc
   -------------------------------------------------------
     A'        99      99       0       0       0       0
     A"        51      51       0       0       0       0
   -------------------------------------------------------
    Total     150     150      25      25      25       0
   -------------------------------------------------------

  ==> Integral Setup <==

  ==> DiskDFJK: Density-Fitted J/K Matrices <==

    J tasked:                  Yes
    K tasked:                  Yes
    wK tasked:                 Yes
    Omega:               3.000E-01
    OpenMP threads:              1
    Integrals threads:           1
    Memory [MiB]:             5488
    Algorithm:                Core
    Integral Cache:           NONE
    Schwarz Cutoff:          1E-12
    Fitting Condition:       1E-10

   => Auxiliary Basis Set <=

  Basis Set: (AUG-CC-PVTZ AUX)
    Blend: AUG-CC-PVTZ-JKFIT
    Number of shells: 126
    Number of basis function: 438
    Number of Cartesian functions: 540
    Spherical Harmonics?: true
    Max angular momentum: 4

  Cached 100.0% of DFT collocation blocks in 1.625 [GiB].

  Minimum eigenvalue in the overlap matrix is 2.2907929932E-04.
  Using Symmetric Orthogonalization.

  SCF Guess: Superposition of Atomic Densities via on-the-fly atomic UHF.

  ==> Iterations <==

                           Total Energy        Delta E     RMS |[F,P]|

   @DF-UKS iter SAD: -1194.00702522081406   -1.19401e+03   0.00000e+00 
   @DF-UKS iter   1: -1194.33758101664807   -3.30556e-01   4.85189e-03 DIIS
   @DF-UKS iter   2: -1194.43363519426271   -9.60542e-02   3.86361e-03 DIIS
   @DF-UKS iter   3: -1194.52915460490840   -9.55194e-02   3.98253e-04 DIIS
   @DF-UKS iter   4: -1194.53050608874764   -1.35148e-03   1.34887e-04 DIIS
   @DF-UKS iter   5: -1194.53073276345094   -2.26675e-04   6.27872e-05 DIIS
   @DF-UKS iter   6: -1194.53077542870278   -4.26653e-05   1.88012e-05 DIIS
   @DF-UKS iter   7: -1194.53078296344574   -7.53474e-06   6.66226e-06 DIIS
   @DF-UKS iter   8: -1194.53078454563183   -1.58219e-06   2.76402e-06 DIIS
   @DF-UKS iter   9: -1194.53078490210714   -3.56475e-07   9.09754e-07 DIIS
   @DF-UKS iter  10: -1194.53078494415104   -4.20439e-08   4.72635e-07 DIIS
   @DF-UKS iter  11: -1194.53078494829697   -4.14593e-09   1.59370e-07 DIIS
   @DF-UKS iter  12: -1194.53078494885494   -5.57975e-10   3.57756e-08 DIIS
   @DF-UKS iter  13: -1194.53078494891929   -6.43468e-11   1.18994e-08 DIIS
   @DF-UKS iter  14: -1194.53078494892316   -3.86535e-12   5.51851e-09 DIIS
  Energy and wave function converged.


  ==> Post-Iterations <==

   @Spin Contamination Metric:  -1.207922651E-13
   @S^2 Expected:                0.000000000E+00
   @S^2 Observed:               -1.207922651E-13
   @S   Expected:                0.000000000E+00
   @S   Observed:                0.000000000E+00

    Orbital Energies [Eh]
    ---------------------

    Alpha Occupied:                                                       

       1Ap   -88.872820     2Ap   -88.821451     3Ap   -88.820052  
       4Ap    -7.781378     5Ap    -7.734050     6Ap    -7.731158  
       7Ap    -5.692488     8Ap    -5.688956     1App   -5.682937  
       9Ap    -5.645495    10Ap    -5.642898    11Ap    -5.638678  
       2App   -5.637791    12Ap    -5.635648     3App   -5.635012  
      13Ap    -0.548042    14Ap    -0.429367    15Ap    -0.303918  
      16Ap    -0.105836    17Ap    -0.082151     4App   -0.072132  
       5App    0.021760    18Ap     0.034506    19Ap     0.041278  
       6App    0.099144  

    Alpha Virtual:                                                        

      20Ap     0.255559    21Ap     0.260557    22Ap     0.307363  
      23Ap     0.331471     7App    0.334997    24Ap     0.335711  
       8App    0.343087     9App    0.346108    25Ap     0.346923  
      26Ap     0.392888    27Ap     0.403796    28Ap     0.434208  
      29Ap     0.471708    30Ap     0.496302    10App    0.527069  
      31Ap     0.544345    11App    0.555133    32Ap     0.582384  
      33Ap     0.593653    34Ap     0.597790    12App    0.616804  
      35Ap     0.618319    13App    0.618944    36Ap     0.650286  
      14App    0.650474    37Ap     0.658814    38Ap     0.681609  
      15App    0.700886    39Ap     0.727921    16App    0.803665  
      40Ap     0.820367    41Ap     0.871148    17App    0.875044  
      42Ap     0.884235    43Ap     0.890130    44Ap     0.906869  
      18App    0.917572    19App    0.919693    45Ap     0.927730  
      46Ap     0.931787    20App    0.938135    47Ap     0.971271  
      48Ap     0.996483    21App    1.002894    49Ap     1.007784  
      22App    1.018934    50Ap     1.024546    51Ap     1.043691  
      52Ap     1.064468    23App    1.066166    24App    1.104080  
      53Ap     1.106973    25App    1.130380    54Ap     1.153156  
      26App    1.155219    55Ap     1.159199    27App    1.177137  
      56Ap     1.205914    57Ap     1.219973    58Ap     1.225389  
      59Ap     1.299005    28App    1.307732    29App    1.350255  
      60Ap     1.376744    30App    1.411290    61Ap     1.415271  
      62Ap     1.479833    31App    1.482240    63Ap     1.493220  
      64Ap     1.533881    65Ap     1.552681    32App    1.576167  
      33App    1.584318    66Ap     1.682399    67Ap     1.685070  
      68Ap     1.756763    69Ap     1.870831    70Ap     2.176085  
      34App    2.191246    35App    2.206983    71Ap     2.215227  
      36App    2.245892    72Ap     2.250132    73Ap     2.258127  
      37App    2.260238    74Ap     2.287096    75Ap     2.334198  
      38App    2.336351    76Ap     2.356947    77Ap     2.375872  
      39App    2.391484    78Ap     2.393348    40App    2.403873  
      41App    2.419479    79Ap     2.421685    42App    2.451394  
      80Ap     2.460740    43App    2.481574    81Ap     2.501755  
      82Ap     2.521991    44App    2.541872    83Ap     2.546509  
      45App    2.552081    84Ap     2.559107    46App    2.620476  
      85Ap     2.630575    47App    2.646476    86Ap     2.649632  
      87Ap     2.666737    48App    2.682281    49App    2.730779  
      88Ap     2.763881    89Ap     2.782429    90Ap     2.824768  
      91Ap     2.843584    92Ap     2.877328    50App    2.919922  
      93Ap     2.942048    51App    2.990080    94Ap     3.085670  
      95Ap     3.972469    96Ap     4.081844    97Ap     5.156947  
      98Ap     5.561526    99Ap     6.031688  

    Beta Occupied:                                                        

       1Ap   -88.872820     2Ap   -88.821451     3Ap   -88.820052  
       4Ap    -7.781378     5Ap    -7.734050     6Ap    -7.731158  
       7Ap    -5.692488     8Ap    -5.688956     1App   -5.682937  
       9Ap    -5.645495    10Ap    -5.642898    11Ap    -5.638678  
       2App   -5.637791    12Ap    -5.635648     3App   -5.635012  
      13Ap    -0.548042    14Ap    -0.429367    15Ap    -0.303918  
      16Ap    -0.105836    17Ap    -0.082151     4App   -0.072132  
       5App    0.021760    18Ap     0.034506    19Ap     0.041278  
       6App    0.099144  

    Beta Virtual:                                                         

      20Ap     0.255559    21Ap     0.260557    22Ap     0.307363  
      23Ap     0.331471     7App    0.334997    24Ap     0.335711  
       8App    0.343087     9App    0.346108    25Ap     0.346923  
      26Ap     0.392888    27Ap     0.403796    28Ap     0.434208  
      29Ap     0.471708    30Ap     0.496302    10App    0.527069  
      31Ap     0.544345    11App    0.555133    32Ap     0.582384  
      33Ap     0.593653    34Ap     0.597790    12App    0.616804  
      35Ap     0.618319    13App    0.618944    36Ap     0.650286  
      14App    0.650474    37Ap     0.658814    38Ap     0.681609  
      15App    0.700886    39Ap     0.727921    16App    0.803665  
      40Ap     0.820367    41Ap     0.871148    17App    0.875044  
      42Ap     0.884235    43Ap     0.890130    44Ap     0.906869  
      18App    0.917572    19App    0.919693    45Ap     0.927730  
      46Ap     0.931787    20App    0.938135    47Ap     0.971271  
      48Ap     0.996483    21App    1.002894    49Ap     1.007784  
      22App    1.018934    50Ap     1.024546    51Ap     1.043691  
      52Ap     1.064468    23App    1.066166    24App    1.104080  
      53Ap     1.106973    25App    1.130380    54Ap     1.153156  
      26App    1.155219    55Ap     1.159199    27App    1.177137  
      56Ap     1.205914    57Ap     1.219973    58Ap     1.225389  
      59Ap     1.299005    28App    1.307732    29App    1.350255  
      60Ap     1.376744    30App    1.411290    61Ap     1.415271  
      62Ap     1.479833    31App    1.482240    63Ap     1.493220  
      64Ap     1.533881    65Ap     1.552681    32App    1.576167  
      33App    1.584318    66Ap     1.682399    67Ap     1.685070  
      68Ap     1.756763    69Ap     1.870831    70Ap     2.176085  
      34App    2.191246    35App    2.206983    71Ap     2.215227  
      36App    2.245892    72Ap     2.250132    73Ap     2.258127  
      37App    2.260238    74Ap     2.287096    75Ap     2.334198  
      38App    2.336351    76Ap     2.356947    77Ap     2.375872  
      39App    2.391484    78Ap     2.393348    40App    2.403873  
      41App    2.419479    79Ap     2.421685    42App    2.451394  
      80Ap     2.460740    43App    2.481574    81Ap     2.501755  
      82Ap     2.521991    44App    2.541872    83Ap     2.546509  
      45App    2.552081    84Ap     2.559107    46App    2.620476  
      85Ap     2.630575    47App    2.646476    86Ap     2.649632  
      87Ap     2.666737    48App    2.682281    49App    2.730779  
      88Ap     2.763881    89Ap     2.782429    90Ap     2.824768  
      91Ap     2.843584    92Ap     2.877328    50App    2.919922  
      93Ap     2.942048    51App    2.990080    94Ap     3.085670  
      95Ap     3.972469    96Ap     4.081844    97Ap     5.156947  
      98Ap     5.561526    99Ap     6.031688  

    Final Occupation by Irrep:
             Ap   App 
    DOCC [    19,    6 ]
    SOCC [     0,    0 ]

  @DF-UKS Final Energy: -1194.53078494892316

   => Energetics <=

    Nuclear Repulsion Energy =            170.4083527542231309
    One-Electron Energy =               -2008.6157770309764601
    Two-Electron Energy =                 703.0180643581826416
    DFT Exchange-Correlation Energy =     -59.5440216894667529
    Empirical Dispersion Energy =           0.0000000000000000
    VV10 Nonlocal Energy =                  0.2025966591140239
    Total Energy =                      -1194.5307849489231558

  UHF NO Occupations:
  HONO-2 :   17 Ap 2.0000000
  HONO-1 :   18 Ap 2.0000000
  HONO-0 :   19 Ap 2.0000000
  LUNO+0 :   20 Ap 0.0000000
  LUNO+1 :   21 Ap 0.0000000
  LUNO+2 :   22 Ap 0.0000000
  LUNO+3 :   23 Ap 0.0000000


Computation Completed


Properties will be evaluated at   0.000000,   0.000000,   0.000000 [a0]

Properties computed using the SCF density matrix

  Nuclear Dipole Moment: [e a0]
     X:     0.0000      Y:     0.0000      Z:     0.0000

  Electronic Dipole Moment: [e a0]
     X:     0.7006      Y:     0.2250      Z:     0.0000

  Dipole Moment: [e a0]
     X:     0.7006      Y:     0.2250      Z:     0.0000     Total:     0.7359

  Dipole Moment: [D]
     X:     1.7808      Y:     0.5718      Z:     0.0000     Total:     1.8704


*** tstop() called on c2-18.compute.lan at Tue Feb  2 14:54:56 2021
Module time:
	user time   =     282.86 seconds =       4.71 minutes
	system time =       1.72 seconds =       0.03 minutes
	total time  =        385 seconds =       6.42 minutes
Total time:
	user time   =     566.96 seconds =       9.45 minutes
	system time =      14.00 seconds =       0.23 minutes
	total time  =        909 seconds =      15.15 minutes

  //>>>>>>>>>>>>>>>>>>>>>>>>>>>>>>>>>>>//
  //    Loading displacement 3 of 7    //
  //<<<<<<<<<<<<<<<<<<<<<<<<<<<<<<<<<<<//

*** tstart() called on c2-18.compute.lan
*** at Tue Feb  2 14:54:56 2021

   => Loading Basis Set <=

    Name: AUG-CC-PVTZ
    Role: ORBITAL
    Keyword: BASIS
    atoms 1-3 entry S          line   906 file /apps/gb/PSI4/1.4.0/share/psi4/basis/aug-cc-pvtz.gbs 


         ---------------------------------------------------------
                                   SCF
               by Justin Turney, Rob Parrish, Andy Simmonett
                          and Daniel G. A. Smith
                              UKS Reference
                        1 Threads,   9536 MiB Core
         ---------------------------------------------------------

  ==> Geometry <==

    Molecular point group: cs
    Full point group: Cs

    Geometry (in Angstrom), charge = -2, multiplicity = 1:

       Center              X                  Y                   Z               Mass       
    ------------   -----------------  -----------------  -----------------  -----------------
         S            0.606595726876     0.316682539825     0.000000000000    31.972071174400
         S            0.606068741015    -1.683317460175     0.000000000000    31.972071174400
         S           -1.212664467891     1.366634920350     0.000000000000    31.972071174400

  Running in cs symmetry.

  Rotational constants: A =      0.75340  B =      0.08359  C =      0.07524 [cm^-1]
  Rotational constants: A =  22586.29300  B =   2506.03684  C =   2255.75236 [MHz]
  Nuclear repulsion =  170.377527481310580

  Charge       = -2
  Multiplicity = 1
  Electrons    = 50
  Nalpha       = 25
  Nbeta        = 25

  ==> Algorithm <==

  SCF Algorithm Type is DF.
  DIIS enabled.
  MOM disabled.
  Fractional occupation disabled.
  Guess Type is SAD.
  Energy threshold   = 1.00e-08
  Density threshold  = 1.00e-08
  Integral threshold = 0.00e+00

  ==> Primary Basis <==

  Basis Set: AUG-CC-PVTZ
    Blend: AUG-CC-PVTZ
    Number of shells: 48
    Number of basis function: 150
    Number of Cartesian functions: 177
    Spherical Harmonics?: true
    Max angular momentum: 3

  ==> DFT Potential <==

   => Composite Functional: WB97M-V <= 

    wB97M-V Hyb-GGA Exchange-Correlation Functional

    N. Mardirossian and M. Head-Gordon, J. Chem. Phys. 144, 214110 (2016)

    Deriv               =              1
    GGA                 =           TRUE
    Meta                =           TRUE

    Exchange Hybrid     =           TRUE
    MP2 Hybrid          =          FALSE

   => Exchange-Correlation Functionals <=

    1.0000   wB97M-V exchange-correlation functional

   => Exact (HF) Exchange <=

    0.8500            HF,LR [omega = 0.3000]
    0.1500               HF 

   => VV10 Non-Local Parameters <=

    VV10 B              =     6.0000E+00
    VV10 C              =     1.0000E-02

   => Molecular Quadrature <=

    Radial Scheme          =       TREUTLER
    Pruning Scheme         =           NONE
    Nuclear Scheme         =       TREUTLER

    BS radius alpha        =              1
    Pruning alpha          =              1
    Radial Points          =             99
    Spherical Points       =            590
    Total Points           =         169928
    Total Blocks           =           1392
    Max Points             =            256
    Max Functions          =            150
    Weights Tolerance      =       1.00E-15

   => Loading Basis Set <=

    Name: (AUG-CC-PVTZ AUX)
    Role: JKFIT
    Keyword: DF_BASIS_SCF
    atoms 1-3 entry S          line   730 file /apps/gb/PSI4/1.4.0/share/psi4/basis/aug-cc-pvtz-jkfit.gbs 

  ==> Pre-Iterations <==

   -------------------------------------------------------
    Irrep   Nso     Nmo     Nalpha   Nbeta   Ndocc  Nsocc
   -------------------------------------------------------
     A'        99      99       0       0       0       0
     A"        51      51       0       0       0       0
   -------------------------------------------------------
    Total     150     150      25      25      25       0
   -------------------------------------------------------

  ==> Integral Setup <==

  ==> DiskDFJK: Density-Fitted J/K Matrices <==

    J tasked:                  Yes
    K tasked:                  Yes
    wK tasked:                 Yes
    Omega:               3.000E-01
    OpenMP threads:              1
    Integrals threads:           1
    Memory [MiB]:             5488
    Algorithm:                Core
    Integral Cache:           NONE
    Schwarz Cutoff:          1E-12
    Fitting Condition:       1E-10

   => Auxiliary Basis Set <=

  Basis Set: (AUG-CC-PVTZ AUX)
    Blend: AUG-CC-PVTZ-JKFIT
    Number of shells: 126
    Number of basis function: 438
    Number of Cartesian functions: 540
    Spherical Harmonics?: true
    Max angular momentum: 4

  Cached 100.0% of DFT collocation blocks in 1.625 [GiB].

  Minimum eigenvalue in the overlap matrix is 2.2923091700E-04.
  Using Symmetric Orthogonalization.

  SCF Guess: Superposition of Atomic Densities via on-the-fly atomic UHF.

  ==> Iterations <==

                           Total Energy        Delta E     RMS |[F,P]|

   @DF-UKS iter SAD: -1194.00598501560467   -1.19401e+03   0.00000e+00 
   @DF-UKS iter   1: -1194.33762673547653   -3.31642e-01   4.85184e-03 DIIS
   @DF-UKS iter   2: -1194.43364495767628   -9.60182e-02   3.86397e-03 DIIS
   @DF-UKS iter   3: -1194.52918879280287   -9.55438e-02   3.98530e-04 DIIS
   @DF-UKS iter   4: -1194.53054139229698   -1.35260e-03   1.34849e-04 DIIS
   @DF-UKS iter   5: -1194.53076809519030   -2.26703e-04   6.27725e-05 DIIS
   @DF-UKS iter   6: -1194.53081078183664   -4.26866e-05   1.88164e-05 DIIS
   @DF-UKS iter   7: -1194.53081833045007   -7.54861e-06   6.66598e-06 DIIS
   @DF-UKS iter   8: -1194.53081991598651   -1.58554e-06   2.76800e-06 DIIS
   @DF-UKS iter   9: -1194.53082027317532   -3.57189e-07   9.12690e-07 DIIS
   @DF-UKS iter  10: -1194.53082031518079   -4.20055e-08   4.79683e-07 DIIS
   @DF-UKS iter  11: -1194.53082031941949   -4.23870e-09   1.58626e-07 DIIS
   @DF-UKS iter  12: -1194.53082031998019   -5.60703e-10   3.57512e-08 DIIS
   @DF-UKS iter  13: -1194.53082032004181   -6.16183e-11   1.19454e-08 DIIS
   @DF-UKS iter  14: -1194.53082032005182   -1.00044e-11   5.53616e-09 DIIS
  Energy and wave function converged.


  ==> Post-Iterations <==

   @Spin Contamination Metric:  -6.394884622E-14
   @S^2 Expected:                0.000000000E+00
   @S^2 Observed:               -6.394884622E-14
   @S   Expected:                0.000000000E+00
   @S   Observed:                0.000000000E+00

    Orbital Energies [Eh]
    ---------------------

    Alpha Occupied:                                                       

       1Ap   -88.872875     2Ap   -88.821474     3Ap   -88.820061  
       4Ap    -7.781422     5Ap    -7.734072     6Ap    -7.731154  
       7Ap    -5.692532     8Ap    -5.689003     1App   -5.682981  
       9Ap    -5.645517    10Ap    -5.642896    11Ap    -5.638700  
       2App   -5.637811    12Ap    -5.635642     3App   -5.635008  
      13Ap    -0.547968    14Ap    -0.429260    15Ap    -0.303994  
      16Ap    -0.105783    17Ap    -0.082129     4App   -0.072094  
       5App    0.021790    18Ap     0.034547    19Ap     0.041228  
       6App    0.099071  

    Alpha Virtual:                                                        

      20Ap     0.255560    21Ap     0.260546    22Ap     0.307338  
      23Ap     0.331455     7App    0.334998    24Ap     0.335736  
       8App    0.343094     9App    0.346088    25Ap     0.346911  
      26Ap     0.392863    27Ap     0.403748    28Ap     0.434134  
      29Ap     0.471705    30Ap     0.496232    10App    0.527087  
      31Ap     0.544401    11App    0.555122    32Ap     0.582391  
      33Ap     0.593625    34Ap     0.597755    12App    0.616755  
      35Ap     0.618255    13App    0.618965    36Ap     0.650291  
      14App    0.650450    37Ap     0.658786    38Ap     0.681567  
      15App    0.700820    39Ap     0.727863    16App    0.803672  
      40Ap     0.820411    41Ap     0.871185    17App    0.875085  
      42Ap     0.884267    43Ap     0.890145    44Ap     0.906868  
      18App    0.917544    19App    0.919654    45Ap     0.927699  
      46Ap     0.931830    20App    0.938112    47Ap     0.971206  
      48Ap     0.996470    21App    1.002868    49Ap     1.007771  
      22App    1.018985    50Ap     1.024571    51Ap     1.043596  
      52Ap     1.064378    23App    1.066160    24App    1.104085  
      53Ap     1.106964    25App    1.130238    54Ap     1.153164  
      26App    1.155248    55Ap     1.159111    27App    1.177002  
      56Ap     1.205625    57Ap     1.219931    58Ap     1.225306  
      59Ap     1.298914    28App    1.307781    29App    1.350145  
      60Ap     1.376620    30App    1.411105    61Ap     1.415074  
      62Ap     1.479811    31App    1.482156    63Ap     1.493088  
      64Ap     1.533686    65Ap     1.552640    32App    1.576022  
      33App    1.584120    66Ap     1.682100    67Ap     1.684843  
      68Ap     1.756680    69Ap     1.870739    70Ap     2.176106  
      34App    2.191228    35App    2.206932    71Ap     2.215251  
      36App    2.245842    72Ap     2.250024    73Ap     2.258016  
      37App    2.260215    74Ap     2.287281    75Ap     2.334067  
      38App    2.336346    76Ap     2.357027    77Ap     2.375927  
      39App    2.391527    78Ap     2.393437    40App    2.403935  
      41App    2.419443    79Ap     2.421841    42App    2.451479  
      80Ap     2.460789    43App    2.481559    81Ap     2.501872  
      82Ap     2.521946    44App    2.541840    83Ap     2.546521  
      45App    2.552075    84Ap     2.559140    46App    2.620482  
      85Ap     2.630474    47App    2.646076    86Ap     2.649421  
      87Ap     2.666578    48App    2.682260    49App    2.730530  
      88Ap     2.763605    89Ap     2.781336    90Ap     2.824509  
      91Ap     2.843405    92Ap     2.877187    50App    2.919292  
      93Ap     2.941974    51App    2.990016    94Ap     3.085124  
      95Ap     3.971324    96Ap     4.081605    97Ap     5.155411  
      98Ap     5.561294    99Ap     6.031856  

    Beta Occupied:                                                        

       1Ap   -88.872875     2Ap   -88.821474     3Ap   -88.820061  
       4Ap    -7.781422     5Ap    -7.734072     6Ap    -7.731154  
       7Ap    -5.692532     8Ap    -5.689003     1App   -5.682981  
       9Ap    -5.645517    10Ap    -5.642896    11Ap    -5.638700  
       2App   -5.637811    12Ap    -5.635642     3App   -5.635008  
      13Ap    -0.547968    14Ap    -0.429260    15Ap    -0.303994  
      16Ap    -0.105783    17Ap    -0.082129     4App   -0.072094  
       5App    0.021790    18Ap     0.034547    19Ap     0.041228  
       6App    0.099071  

    Beta Virtual:                                                         

      20Ap     0.255560    21Ap     0.260546    22Ap     0.307338  
      23Ap     0.331455     7App    0.334998    24Ap     0.335736  
       8App    0.343094     9App    0.346088    25Ap     0.346911  
      26Ap     0.392863    27Ap     0.403748    28Ap     0.434134  
      29Ap     0.471705    30Ap     0.496232    10App    0.527087  
      31Ap     0.544401    11App    0.555122    32Ap     0.582391  
      33Ap     0.593625    34Ap     0.597755    12App    0.616755  
      35Ap     0.618255    13App    0.618965    36Ap     0.650291  
      14App    0.650450    37Ap     0.658786    38Ap     0.681567  
      15App    0.700820    39Ap     0.727863    16App    0.803672  
      40Ap     0.820411    41Ap     0.871185    17App    0.875085  
      42Ap     0.884267    43Ap     0.890145    44Ap     0.906868  
      18App    0.917544    19App    0.919654    45Ap     0.927699  
      46Ap     0.931830    20App    0.938112    47Ap     0.971206  
      48Ap     0.996470    21App    1.002868    49Ap     1.007771  
      22App    1.018985    50Ap     1.024571    51Ap     1.043596  
      52Ap     1.064378    23App    1.066160    24App    1.104085  
      53Ap     1.106964    25App    1.130238    54Ap     1.153164  
      26App    1.155248    55Ap     1.159111    27App    1.177002  
      56Ap     1.205625    57Ap     1.219931    58Ap     1.225306  
      59Ap     1.298914    28App    1.307781    29App    1.350145  
      60Ap     1.376620    30App    1.411105    61Ap     1.415074  
      62Ap     1.479811    31App    1.482156    63Ap     1.493088  
      64Ap     1.533686    65Ap     1.552640    32App    1.576022  
      33App    1.584120    66Ap     1.682100    67Ap     1.684843  
      68Ap     1.756680    69Ap     1.870739    70Ap     2.176106  
      34App    2.191228    35App    2.206932    71Ap     2.215251  
      36App    2.245842    72Ap     2.250024    73Ap     2.258016  
      37App    2.260215    74Ap     2.287281    75Ap     2.334067  
      38App    2.336346    76Ap     2.357027    77Ap     2.375927  
      39App    2.391527    78Ap     2.393437    40App    2.403935  
      41App    2.419443    79Ap     2.421841    42App    2.451479  
      80Ap     2.460789    43App    2.481559    81Ap     2.501872  
      82Ap     2.521946    44App    2.541840    83Ap     2.546521  
      45App    2.552075    84Ap     2.559140    46App    2.620482  
      85Ap     2.630474    47App    2.646076    86Ap     2.649421  
      87Ap     2.666578    48App    2.682260    49App    2.730530  
      88Ap     2.763605    89Ap     2.781336    90Ap     2.824509  
      91Ap     2.843405    92Ap     2.877187    50App    2.919292  
      93Ap     2.941974    51App    2.990016    94Ap     3.085124  
      95Ap     3.971324    96Ap     4.081605    97Ap     5.155411  
      98Ap     5.561294    99Ap     6.031856  

    Final Occupation by Irrep:
             Ap   App 
    DOCC [    19,    6 ]
    SOCC [     0,    0 ]

  @DF-UKS Final Energy: -1194.53082032005182

   => Energetics <=

    Nuclear Repulsion Energy =            170.3775274813105796
    One-Electron Energy =               -2008.5539879693164949
    Two-Electron Energy =                 702.9868386561129228
    DFT Exchange-Correlation Energy =     -59.5437964763174961
    Empirical Dispersion Energy =           0.0000000000000000
    VV10 Nonlocal Energy =                  0.2025979881585742
    Total Energy =                      -1194.5308203200518165

  UHF NO Occupations:
  HONO-2 :    6App 2.0000000
  HONO-1 :   18 Ap 2.0000000
  HONO-0 :   19 Ap 2.0000000
  LUNO+0 :   20 Ap 0.0000000
  LUNO+1 :   21 Ap 0.0000000
  LUNO+2 :   22 Ap 0.0000000
  LUNO+3 :   23 Ap 0.0000000


Computation Completed


Properties will be evaluated at   0.000000,   0.000000,   0.000000 [a0]

Properties computed using the SCF density matrix

  Nuclear Dipole Moment: [e a0]
     X:     0.0000      Y:    -0.0000      Z:     0.0000

  Electronic Dipole Moment: [e a0]
     X:     0.7014      Y:     0.2236      Z:     0.0000

  Dipole Moment: [e a0]
     X:     0.7014      Y:     0.2236      Z:     0.0000     Total:     0.7362

  Dipole Moment: [D]
     X:     1.7829      Y:     0.5683      Z:     0.0000     Total:     1.8713


*** tstop() called on c2-18.compute.lan at Tue Feb  2 15:01:08 2021
Module time:
	user time   =     283.60 seconds =       4.73 minutes
	system time =       1.55 seconds =       0.03 minutes
	total time  =        372 seconds =       6.20 minutes
Total time:
	user time   =     850.57 seconds =      14.18 minutes
	system time =      15.55 seconds =       0.26 minutes
	total time  =       1281 seconds =      21.35 minutes

  //>>>>>>>>>>>>>>>>>>>>>>>>>>>>>>>>>>>//
  //    Loading displacement 4 of 7    //
  //<<<<<<<<<<<<<<<<<<<<<<<<<<<<<<<<<<<//

*** tstart() called on c2-18.compute.lan
*** at Tue Feb  2 15:01:08 2021

   => Loading Basis Set <=

    Name: AUG-CC-PVTZ
    Role: ORBITAL
    Keyword: BASIS
    atoms 1-3 entry S          line   906 file /apps/gb/PSI4/1.4.0/share/psi4/basis/aug-cc-pvtz.gbs 


         ---------------------------------------------------------
                                   SCF
               by Justin Turney, Rob Parrish, Andy Simmonett
                          and Daniel G. A. Smith
                              UKS Reference
                        1 Threads,   9536 MiB Core
         ---------------------------------------------------------

  ==> Geometry <==

    Molecular point group: cs
    Full point group: Cs

    Geometry (in Angstrom), charge = -2, multiplicity = 1:

       Center              X                  Y                   Z               Mass       
    ------------   -----------------  -----------------  -----------------  -----------------
         S            0.606217782649     0.316300280266     0.000000000000    31.972071174400
         S            0.606298365760    -1.683102090053     0.000000000000    31.972071174400
         S           -1.212516148409     1.366801809787     0.000000000000    31.972071174400

  Running in cs symmetry.

  Rotational constants: A =      0.75455  B =      0.08359  C =      0.07526 [cm^-1]
  Rotational constants: A =  22620.87925  B =   2506.02908  C =   2256.09058 [MHz]
  Nuclear repulsion =  170.403339179731688

  Charge       = -2
  Multiplicity = 1
  Electrons    = 50
  Nalpha       = 25
  Nbeta        = 25

  ==> Algorithm <==

  SCF Algorithm Type is DF.
  DIIS enabled.
  MOM disabled.
  Fractional occupation disabled.
  Guess Type is SAD.
  Energy threshold   = 1.00e-08
  Density threshold  = 1.00e-08
  Integral threshold = 0.00e+00

  ==> Primary Basis <==

  Basis Set: AUG-CC-PVTZ
    Blend: AUG-CC-PVTZ
    Number of shells: 48
    Number of basis function: 150
    Number of Cartesian functions: 177
    Spherical Harmonics?: true
    Max angular momentum: 3

  ==> DFT Potential <==

   => Composite Functional: WB97M-V <= 

    wB97M-V Hyb-GGA Exchange-Correlation Functional

    N. Mardirossian and M. Head-Gordon, J. Chem. Phys. 144, 214110 (2016)

    Deriv               =              1
    GGA                 =           TRUE
    Meta                =           TRUE

    Exchange Hybrid     =           TRUE
    MP2 Hybrid          =          FALSE

   => Exchange-Correlation Functionals <=

    1.0000   wB97M-V exchange-correlation functional

   => Exact (HF) Exchange <=

    0.8500            HF,LR [omega = 0.3000]
    0.1500               HF 

   => VV10 Non-Local Parameters <=

    VV10 B              =     6.0000E+00
    VV10 C              =     1.0000E-02

   => Molecular Quadrature <=

    Radial Scheme          =       TREUTLER
    Pruning Scheme         =           NONE
    Nuclear Scheme         =       TREUTLER

    BS radius alpha        =              1
    Pruning alpha          =              1
    Radial Points          =             99
    Spherical Points       =            590
    Total Points           =         169929
    Total Blocks           =           1388
    Max Points             =            256
    Max Functions          =            150
    Weights Tolerance      =       1.00E-15

   => Loading Basis Set <=

    Name: (AUG-CC-PVTZ AUX)
    Role: JKFIT
    Keyword: DF_BASIS_SCF
    atoms 1-3 entry S          line   730 file /apps/gb/PSI4/1.4.0/share/psi4/basis/aug-cc-pvtz-jkfit.gbs 

  ==> Pre-Iterations <==

   -------------------------------------------------------
    Irrep   Nso     Nmo     Nalpha   Nbeta   Ndocc  Nsocc
   -------------------------------------------------------
     A'        99      99       0       0       0       0
     A"        51      51       0       0       0       0
   -------------------------------------------------------
    Total     150     150      25      25      25       0
   -------------------------------------------------------

  ==> Integral Setup <==

  ==> DiskDFJK: Density-Fitted J/K Matrices <==

    J tasked:                  Yes
    K tasked:                  Yes
    wK tasked:                 Yes
    Omega:               3.000E-01
    OpenMP threads:              1
    Integrals threads:           1
    Memory [MiB]:             5488
    Algorithm:                Core
    Integral Cache:           NONE
    Schwarz Cutoff:          1E-12
    Fitting Condition:       1E-10

   => Auxiliary Basis Set <=

  Basis Set: (AUG-CC-PVTZ AUX)
    Blend: AUG-CC-PVTZ-JKFIT
    Number of shells: 126
    Number of basis function: 438
    Number of Cartesian functions: 540
    Spherical Harmonics?: true
    Max angular momentum: 4

  Cached 100.0% of DFT collocation blocks in 1.625 [GiB].

  Minimum eigenvalue in the overlap matrix is 2.2887036555E-04.
  Using Symmetric Orthogonalization.

  SCF Guess: Superposition of Atomic Densities via on-the-fly atomic UHF.

  ==> Iterations <==

                           Total Energy        Delta E     RMS |[F,P]|

   @DF-UKS iter SAD: -1194.00692596103227   -1.19401e+03   0.00000e+00 
   @DF-UKS iter   1: -1194.33754319873719   -3.30617e-01   4.85203e-03 DIIS
   @DF-UKS iter   2: -1194.43356277233852   -9.60196e-02   3.86426e-03 DIIS
   @DF-UKS iter   3: -1194.52912650037729   -9.55637e-02   3.98673e-04 DIIS
   @DF-UKS iter   4: -1194.53048008403448   -1.35358e-03   1.35091e-04 DIIS
   @DF-UKS iter   5: -1194.53070715239801   -2.27068e-04   6.29159e-05 DIIS
   @DF-UKS iter   6: -1194.53075000606441   -4.28537e-05   1.88019e-05 DIIS
   @DF-UKS iter   7: -1194.53075755927512   -7.55321e-06   6.66507e-06 DIIS
   @DF-UKS iter   8: -1194.53075914550914   -1.58623e-06   2.76847e-06 DIIS
   @DF-UKS iter   9: -1194.53075950289031   -3.57381e-07   9.14174e-07 DIIS
   @DF-UKS iter  10: -1194.53075954492442   -4.20341e-08   4.82637e-07 DIIS
   @DF-UKS iter  11: -1194.53075954921815   -4.29372e-09   1.58428e-07 DIIS
   @DF-UKS iter  12: -1194.53075954978431   -5.66160e-10   3.57726e-08 DIIS
   @DF-UKS iter  13: -1194.53075954984615   -6.18456e-11   1.19596e-08 DIIS
   @DF-UKS iter  14: -1194.53075954985115   -5.00222e-12   5.54171e-09 DIIS
  Energy and wave function converged.


  ==> Post-Iterations <==

   @Spin Contamination Metric:  -9.947598301E-14
   @S^2 Expected:                0.000000000E+00
   @S^2 Observed:               -9.947598301E-14
   @S   Expected:                0.000000000E+00
   @S   Observed:                0.000000000E+00

    Orbital Energies [Eh]
    ---------------------

    Alpha Occupied:                                                       

       1Ap   -88.872830     2Ap   -88.821464     3Ap   -88.820043  
       4Ap    -7.781389     5Ap    -7.734073     6Ap    -7.731139  
       7Ap    -5.692498     8Ap    -5.688967     1App   -5.682947  
       9Ap    -5.645516    10Ap    -5.642881    11Ap    -5.638702  
       2App   -5.637813    12Ap    -5.635628     3App   -5.634994  
      13Ap    -0.548076    14Ap    -0.429316    15Ap    -0.303932  
      16Ap    -0.105831    17Ap    -0.082163     4App   -0.072145  
       5App    0.021775    18Ap     0.034520    19Ap     0.041274  
       6App    0.099132  

    Alpha Virtual:                                                        

      20Ap     0.255557    21Ap     0.260556    22Ap     0.307357  
      23Ap     0.331442     7App    0.334993    24Ap     0.335736  
       8App    0.343092     9App    0.346103    25Ap     0.346921  
      26Ap     0.392872    27Ap     0.403769    28Ap     0.434206  
      29Ap     0.471699    30Ap     0.496312    10App    0.527069  
      31Ap     0.544354    11App    0.555131    32Ap     0.582381  
      33Ap     0.593631    34Ap     0.597795    12App    0.616782  
      35Ap     0.618305    13App    0.618956    36Ap     0.650269  
      14App    0.650465    37Ap     0.658814    38Ap     0.681616  
      15App    0.700869    39Ap     0.727906    16App    0.803656  
      40Ap     0.820366    41Ap     0.871139    17App    0.875052  
      42Ap     0.884235    43Ap     0.890134    44Ap     0.906875  
      18App    0.917554    19App    0.919691    45Ap     0.927703  
      46Ap     0.931814    20App    0.938124    47Ap     0.971247  
      48Ap     0.996462    21App    1.002879    49Ap     1.007798  
      22App    1.018956    50Ap     1.024553    51Ap     1.043645  
      52Ap     1.064483    23App    1.066163    24App    1.104077  
      53Ap     1.106965    25App    1.130362    54Ap     1.153160  
      26App    1.155226    55Ap     1.159170    27App    1.177107  
      56Ap     1.205755    57Ap     1.219966    58Ap     1.225491  
      59Ap     1.298987    28App    1.307744    29App    1.350216  
      60Ap     1.376681    30App    1.411261    61Ap     1.415260  
      62Ap     1.479784    31App    1.482216    63Ap     1.493247  
      64Ap     1.533817    65Ap     1.552721    32App    1.576129  
      33App    1.584297    66Ap     1.682299    67Ap     1.685022  
      68Ap     1.756767    69Ap     1.870777    70Ap     2.176082  
      34App    2.191218    35App    2.206948    71Ap     2.215230  
      36App    2.245776    72Ap     2.250050    73Ap     2.257966  
      37App    2.260245    74Ap     2.287291    75Ap     2.334062  
      38App    2.336299    76Ap     2.356991    77Ap     2.375900  
      39App    2.391507    78Ap     2.393426    40App    2.404014  
      41App    2.419528    79Ap     2.421772    42App    2.451386  
      80Ap     2.460763    43App    2.481581    81Ap     2.501772  
      82Ap     2.521995    44App    2.541860    83Ap     2.546526  
      45App    2.552086    84Ap     2.559117    46App    2.620458  
      85Ap     2.630490    47App    2.646180    86Ap     2.649471  
      87Ap     2.666751    48App    2.682483    49App    2.730845  
      88Ap     2.763746    89Ap     2.781596    90Ap     2.824757  
      91Ap     2.843633    92Ap     2.877272    50App    2.919417  
      93Ap     2.942913    51App    2.990452    94Ap     3.085655  
      95Ap     3.971515    96Ap     4.082010    97Ap     5.156585  
      98Ap     5.561708    99Ap     6.031973  

    Beta Occupied:                                                        

       1Ap   -88.872830     2Ap   -88.821464     3Ap   -88.820043  
       4Ap    -7.781389     5Ap    -7.734073     6Ap    -7.731139  
       7Ap    -5.692498     8Ap    -5.688967     1App   -5.682947  
       9Ap    -5.645516    10Ap    -5.642881    11Ap    -5.638702  
       2App   -5.637813    12Ap    -5.635628     3App   -5.634994  
      13Ap    -0.548076    14Ap    -0.429316    15Ap    -0.303932  
      16Ap    -0.105831    17Ap    -0.082163     4App   -0.072145  
       5App    0.021775    18Ap     0.034520    19Ap     0.041274  
       6App    0.099132  

    Beta Virtual:                                                         

      20Ap     0.255557    21Ap     0.260556    22Ap     0.307357  
      23Ap     0.331442     7App    0.334993    24Ap     0.335736  
       8App    0.343092     9App    0.346103    25Ap     0.346921  
      26Ap     0.392872    27Ap     0.403769    28Ap     0.434206  
      29Ap     0.471699    30Ap     0.496312    10App    0.527069  
      31Ap     0.544354    11App    0.555131    32Ap     0.582381  
      33Ap     0.593631    34Ap     0.597795    12App    0.616782  
      35Ap     0.618305    13App    0.618956    36Ap     0.650269  
      14App    0.650465    37Ap     0.658814    38Ap     0.681616  
      15App    0.700869    39Ap     0.727906    16App    0.803656  
      40Ap     0.820366    41Ap     0.871139    17App    0.875052  
      42Ap     0.884235    43Ap     0.890134    44Ap     0.906875  
      18App    0.917554    19App    0.919691    45Ap     0.927703  
      46Ap     0.931814    20App    0.938124    47Ap     0.971247  
      48Ap     0.996462    21App    1.002879    49Ap     1.007798  
      22App    1.018956    50Ap     1.024553    51Ap     1.043645  
      52Ap     1.064483    23App    1.066163    24App    1.104077  
      53Ap     1.106965    25App    1.130362    54Ap     1.153160  
      26App    1.155226    55Ap     1.159170    27App    1.177107  
      56Ap     1.205755    57Ap     1.219966    58Ap     1.225491  
      59Ap     1.298987    28App    1.307744    29App    1.350216  
      60Ap     1.376681    30App    1.411261    61Ap     1.415260  
      62Ap     1.479784    31App    1.482216    63Ap     1.493247  
      64Ap     1.533817    65Ap     1.552721    32App    1.576129  
      33App    1.584297    66Ap     1.682299    67Ap     1.685022  
      68Ap     1.756767    69Ap     1.870777    70Ap     2.176082  
      34App    2.191218    35App    2.206948    71Ap     2.215230  
      36App    2.245776    72Ap     2.250050    73Ap     2.257966  
      37App    2.260245    74Ap     2.287291    75Ap     2.334062  
      38App    2.336299    76Ap     2.356991    77Ap     2.375900  
      39App    2.391507    78Ap     2.393426    40App    2.404014  
      41App    2.419528    79Ap     2.421772    42App    2.451386  
      80Ap     2.460763    43App    2.481581    81Ap     2.501772  
      82Ap     2.521995    44App    2.541860    83Ap     2.546526  
      45App    2.552086    84Ap     2.559117    46App    2.620458  
      85Ap     2.630490    47App    2.646180    86Ap     2.649471  
      87Ap     2.666751    48App    2.682483    49App    2.730845  
      88Ap     2.763746    89Ap     2.781596    90Ap     2.824757  
      91Ap     2.843633    92Ap     2.877272    50App    2.919417  
      93Ap     2.942913    51App    2.990452    94Ap     3.085655  
      95Ap     3.971515    96Ap     4.082010    97Ap     5.156585  
      98Ap     5.561708    99Ap     6.031973  

    Final Occupation by Irrep:
             Ap   App 
    DOCC [    19,    6 ]
    SOCC [     0,    0 ]

  @DF-UKS Final Energy: -1194.53075954985115

   => Energetics <=

    Nuclear Repulsion Energy =            170.4033391797316881
    One-Electron Energy =               -2008.6055531457268444
    Two-Electron Energy =                 703.0128583130647257
    DFT Exchange-Correlation Energy =     -59.5440008688511355
    Empirical Dispersion Energy =           0.0000000000000000
    VV10 Nonlocal Energy =                  0.2025969719304172
    Total Energy =                      -1194.5307595498511546

  UHF NO Occupations:
  HONO-2 :   17 Ap 2.0000000
  HONO-1 :   18 Ap 2.0000000
  HONO-0 :   19 Ap 2.0000000
  LUNO+0 :   20 Ap 0.0000000
  LUNO+1 :   21 Ap 0.0000000
  LUNO+2 :   22 Ap 0.0000000
  LUNO+3 :   23 Ap 0.0000000


Computation Completed


Properties will be evaluated at   0.000000,   0.000000,   0.000000 [a0]

Properties computed using the SCF density matrix

  Nuclear Dipole Moment: [e a0]
     X:     0.0000      Y:    -0.0000      Z:     0.0000

  Electronic Dipole Moment: [e a0]
     X:     0.7019      Y:     0.2230      Z:     0.0000

  Dipole Moment: [e a0]
     X:     0.7019      Y:     0.2230      Z:     0.0000     Total:     0.7364

  Dipole Moment: [D]
     X:     1.7839      Y:     0.5668      Z:     0.0000     Total:     1.8718


*** tstop() called on c2-18.compute.lan at Tue Feb  2 15:07:42 2021
Module time:
	user time   =     284.74 seconds =       4.75 minutes
	system time =       2.88 seconds =       0.05 minutes
	total time  =        394 seconds =       6.57 minutes
Total time:
	user time   =    1135.32 seconds =      18.92 minutes
	system time =      18.43 seconds =       0.31 minutes
	total time  =       1675 seconds =      27.92 minutes

  //>>>>>>>>>>>>>>>>>>>>>>>>>>>>>>>>>>>//
  //    Loading displacement 5 of 7    //
  //<<<<<<<<<<<<<<<<<<<<<<<<<<<<<<<<<<<//

*** tstart() called on c2-18.compute.lan
*** at Tue Feb  2 15:07:42 2021

   => Loading Basis Set <=

    Name: AUG-CC-PVTZ
    Role: ORBITAL
    Keyword: BASIS
    atoms 1-3 entry S          line   906 file /apps/gb/PSI4/1.4.0/share/psi4/basis/aug-cc-pvtz.gbs 


         ---------------------------------------------------------
                                   SCF
               by Justin Turney, Rob Parrish, Andy Simmonett
                          and Daniel G. A. Smith
                              UKS Reference
                        1 Threads,   9536 MiB Core
         ---------------------------------------------------------

  ==> Geometry <==

    Molecular point group: cs
    Full point group: Cs

    Geometry (in Angstrom), charge = -2, multiplicity = 1:

       Center              X                  Y                   Z               Mass       
    ------------   -----------------  -----------------  -----------------  -----------------
         S            0.606217782649     0.317033053067     0.000000000000    31.972071174400
         S            0.606137199538    -1.683564576614     0.000000000000    31.972071174400
         S           -1.212354982187     1.366531523547     0.000000000000    31.972071174400

  Running in cs symmetry.

  Rotational constants: A =      0.75370  B =      0.08359  C =      0.07525 [cm^-1]
  Rotational constants: A =  22595.43469  B =   2506.06514  C =   2255.86644 [MHz]
  Nuclear repulsion =  170.382552772002498

  Charge       = -2
  Multiplicity = 1
  Electrons    = 50
  Nalpha       = 25
  Nbeta        = 25

  ==> Algorithm <==

  SCF Algorithm Type is DF.
  DIIS enabled.
  MOM disabled.
  Fractional occupation disabled.
  Guess Type is SAD.
  Energy threshold   = 1.00e-08
  Density threshold  = 1.00e-08
  Integral threshold = 0.00e+00

  ==> Primary Basis <==

  Basis Set: AUG-CC-PVTZ
    Blend: AUG-CC-PVTZ
    Number of shells: 48
    Number of basis function: 150
    Number of Cartesian functions: 177
    Spherical Harmonics?: true
    Max angular momentum: 3

  ==> DFT Potential <==

   => Composite Functional: WB97M-V <= 

    wB97M-V Hyb-GGA Exchange-Correlation Functional

    N. Mardirossian and M. Head-Gordon, J. Chem. Phys. 144, 214110 (2016)

    Deriv               =              1
    GGA                 =           TRUE
    Meta                =           TRUE

    Exchange Hybrid     =           TRUE
    MP2 Hybrid          =          FALSE

   => Exchange-Correlation Functionals <=

    1.0000   wB97M-V exchange-correlation functional

   => Exact (HF) Exchange <=

    0.8500            HF,LR [omega = 0.3000]
    0.1500               HF 

   => VV10 Non-Local Parameters <=

    VV10 B              =     6.0000E+00
    VV10 C              =     1.0000E-02

   => Molecular Quadrature <=

    Radial Scheme          =       TREUTLER
    Pruning Scheme         =           NONE
    Nuclear Scheme         =       TREUTLER

    BS radius alpha        =              1
    Pruning alpha          =              1
    Radial Points          =             99
    Spherical Points       =            590
    Total Points           =         169934
    Total Blocks           =           1391
    Max Points             =            256
    Max Functions          =            150
    Weights Tolerance      =       1.00E-15

   => Loading Basis Set <=

    Name: (AUG-CC-PVTZ AUX)
    Role: JKFIT
    Keyword: DF_BASIS_SCF
    atoms 1-3 entry S          line   730 file /apps/gb/PSI4/1.4.0/share/psi4/basis/aug-cc-pvtz-jkfit.gbs 

  ==> Pre-Iterations <==

   -------------------------------------------------------
    Irrep   Nso     Nmo     Nalpha   Nbeta   Ndocc  Nsocc
   -------------------------------------------------------
     A'        99      99       0       0       0       0
     A"        51      51       0       0       0       0
   -------------------------------------------------------
    Total     150     150      25      25      25       0
   -------------------------------------------------------

  ==> Integral Setup <==

  ==> DiskDFJK: Density-Fitted J/K Matrices <==

    J tasked:                  Yes
    K tasked:                  Yes
    wK tasked:                 Yes
    Omega:               3.000E-01
    OpenMP threads:              1
    Integrals threads:           1
    Memory [MiB]:             5488
    Algorithm:                Core
    Integral Cache:           NONE
    Schwarz Cutoff:          1E-12
    Fitting Condition:       1E-10

   => Auxiliary Basis Set <=

  Basis Set: (AUG-CC-PVTZ AUX)
    Blend: AUG-CC-PVTZ-JKFIT
    Number of shells: 126
    Number of basis function: 438
    Number of Cartesian functions: 540
    Spherical Harmonics?: true
    Max angular momentum: 4

  Cached 100.0% of DFT collocation blocks in 1.625 [GiB].

  Minimum eigenvalue in the overlap matrix is 2.2943965318E-04.
  Using Symmetric Orthogonalization.

  SCF Guess: Superposition of Atomic Densities via on-the-fly atomic UHF.

  ==> Iterations <==

                           Total Energy        Delta E     RMS |[F,P]|

   @DF-UKS iter SAD: -1194.00608498421479   -1.19401e+03   0.00000e+00 
   @DF-UKS iter   1: -1194.33766433640835   -3.31579e-01   4.85170e-03 DIIS
   @DF-UKS iter   2: -1194.43371706228686   -9.60527e-02   3.86333e-03 DIIS
   @DF-UKS iter   3: -1194.52921673554556   -9.54997e-02   3.98111e-04 DIIS
   @DF-UKS iter   4: -1194.53056724295834   -1.35051e-03   1.34645e-04 DIIS
   @DF-UKS iter   5: -1194.53079355449290   -2.26312e-04   6.26421e-05 DIIS
   @DF-UKS iter   6: -1194.53083605168513   -4.24972e-05   1.88158e-05 DIIS
   @DF-UKS iter   7: -1194.53084358177375   -7.53009e-06   6.66327e-06 DIIS
   @DF-UKS iter   8: -1194.53084516327817   -1.58150e-06   2.76358e-06 DIIS
   @DF-UKS iter   9: -1194.53084551955749   -3.56279e-07   9.08322e-07 DIIS
   @DF-UKS iter  10: -1194.53084556156296   -4.20055e-08   4.69645e-07 DIIS
   @DF-UKS iter  11: -1194.53084556566637   -4.10341e-09   1.59561e-07 DIIS
   @DF-UKS iter  12: -1194.53084556622252   -5.56156e-10   3.57555e-08 DIIS
   @DF-UKS iter  13: -1194.53084556628323   -6.07088e-11   1.18853e-08 DIIS
   @DF-UKS iter  14: -1194.53084556629256   -9.32232e-12   5.51290e-09 DIIS
  Energy and wave function converged.


  ==> Post-Iterations <==

   @Spin Contamination Metric:   4.973799150E-14
   @S^2 Expected:                0.000000000E+00
   @S^2 Observed:                4.973799150E-14
   @S   Expected:                0.000000000E+00
   @S   Observed:                0.000000000E+00

    Orbital Energies [Eh]
    ---------------------

    Alpha Occupied:                                                       

       1Ap   -88.872865     2Ap   -88.821461     3Ap   -88.820069  
       4Ap    -7.781412     5Ap    -7.734049     6Ap    -7.731173  
       7Ap    -5.692521     8Ap    -5.688993     1App   -5.682970  
       9Ap    -5.645496    10Ap    -5.642913    11Ap    -5.638676  
       2App   -5.637789    12Ap    -5.635662     3App   -5.635026  
      13Ap    -0.547934    14Ap    -0.429310    15Ap    -0.303979  
      16Ap    -0.105788    17Ap    -0.082116     4App   -0.072081  
       5App    0.021775    18Ap     0.034532    19Ap     0.041233  
       6App    0.099084  

    Alpha Virtual:                                                        

      20Ap     0.255562    21Ap     0.260546    22Ap     0.307344  
      23Ap     0.331484     7App    0.335003    24Ap     0.335711  
       8App    0.343089     9App    0.346093    25Ap     0.346914  
      26Ap     0.392879    27Ap     0.403775    28Ap     0.434136  
      29Ap     0.471714    30Ap     0.496223    10App    0.527087  
      31Ap     0.544392    11App    0.555124    32Ap     0.582395  
      33Ap     0.593646    34Ap     0.597750    12App    0.616777  
      35Ap     0.618269    13App    0.618953    36Ap     0.650307  
      14App    0.650459    37Ap     0.658786    38Ap     0.681560  
      15App    0.700837    39Ap     0.727878    16App    0.803680  
      40Ap     0.820411    41Ap     0.871194    17App    0.875078  
      42Ap     0.884268    43Ap     0.890140    44Ap     0.906862  
      18App    0.917562    19App    0.919656    45Ap     0.927725  
      46Ap     0.931802    20App    0.938124    47Ap     0.971229  
      48Ap     0.996492    21App    1.002882    49Ap     1.007757  
      22App    1.018963    50Ap     1.024563    51Ap     1.043643  
      52Ap     1.064363    23App    1.066163    24App    1.104088  
      53Ap     1.106973    25App    1.130256    54Ap     1.153161  
      26App    1.155241    55Ap     1.159140    27App    1.177031  
      56Ap     1.205783    57Ap     1.219938    58Ap     1.225204  
      59Ap     1.298932    28App    1.307770    29App    1.350184  
      60Ap     1.376683    30App    1.411134    61Ap     1.415085  
      62Ap     1.479860    31App    1.482179    63Ap     1.493060  
      64Ap     1.533750    65Ap     1.552601    32App    1.576060  
      33App    1.584141    66Ap     1.682200    67Ap     1.684891  
      68Ap     1.756676    69Ap     1.870793    70Ap     2.176108  
      34App    2.191256    35App    2.206967    71Ap     2.215248  
      36App    2.245958    72Ap     2.250106    73Ap     2.258178  
      37App    2.260208    74Ap     2.287085    75Ap     2.334201  
      38App    2.336398    76Ap     2.356983    77Ap     2.375899  
      39App    2.391504    78Ap     2.393360    40App    2.403795  
      41App    2.419393    79Ap     2.421754    42App    2.451488  
      80Ap     2.460766    43App    2.481553    81Ap     2.501855  
      82Ap     2.521942    44App    2.541852    83Ap     2.546503  
      45App    2.552071    84Ap     2.559130    46App    2.620500  
      85Ap     2.630560    47App    2.646372    86Ap     2.649582  
      87Ap     2.666564    48App    2.682058    49App    2.730465  
      88Ap     2.763740    89Ap     2.782168    90Ap     2.824518  
      91Ap     2.843356    92Ap     2.877244    50App    2.919798  
      93Ap     2.941112    51App    2.989644    94Ap     3.085139  
      95Ap     3.972278    96Ap     4.081435    97Ap     5.155771  
      98Ap     5.561114    99Ap     6.031574  

    Beta Occupied:                                                        

       1Ap   -88.872865     2Ap   -88.821461     3Ap   -88.820069  
       4Ap    -7.781412     5Ap    -7.734049     6Ap    -7.731173  
       7Ap    -5.692521     8Ap    -5.688993     1App   -5.682970  
       9Ap    -5.645496    10Ap    -5.642913    11Ap    -5.638676  
       2App   -5.637789    12Ap    -5.635662     3App   -5.635026  
      13Ap    -0.547934    14Ap    -0.429310    15Ap    -0.303979  
      16Ap    -0.105788    17Ap    -0.082116     4App   -0.072081  
       5App    0.021775    18Ap     0.034532    19Ap     0.041233  
       6App    0.099084  

    Beta Virtual:                                                         

      20Ap     0.255562    21Ap     0.260546    22Ap     0.307344  
      23Ap     0.331484     7App    0.335003    24Ap     0.335711  
       8App    0.343089     9App    0.346093    25Ap     0.346914  
      26Ap     0.392879    27Ap     0.403775    28Ap     0.434136  
      29Ap     0.471714    30Ap     0.496223    10App    0.527087  
      31Ap     0.544392    11App    0.555124    32Ap     0.582395  
      33Ap     0.593646    34Ap     0.597750    12App    0.616777  
      35Ap     0.618269    13App    0.618953    36Ap     0.650307  
      14App    0.650459    37Ap     0.658786    38Ap     0.681560  
      15App    0.700837    39Ap     0.727878    16App    0.803680  
      40Ap     0.820411    41Ap     0.871194    17App    0.875078  
      42Ap     0.884268    43Ap     0.890140    44Ap     0.906862  
      18App    0.917562    19App    0.919656    45Ap     0.927725  
      46Ap     0.931802    20App    0.938124    47Ap     0.971229  
      48Ap     0.996492    21App    1.002882    49Ap     1.007757  
      22App    1.018963    50Ap     1.024563    51Ap     1.043643  
      52Ap     1.064363    23App    1.066163    24App    1.104088  
      53Ap     1.106973    25App    1.130256    54Ap     1.153161  
      26App    1.155241    55Ap     1.159140    27App    1.177031  
      56Ap     1.205783    57Ap     1.219938    58Ap     1.225204  
      59Ap     1.298932    28App    1.307770    29App    1.350184  
      60Ap     1.376683    30App    1.411134    61Ap     1.415085  
      62Ap     1.479860    31App    1.482179    63Ap     1.493060  
      64Ap     1.533750    65Ap     1.552601    32App    1.576060  
      33App    1.584141    66Ap     1.682200    67Ap     1.684891  
      68Ap     1.756676    69Ap     1.870793    70Ap     2.176108  
      34App    2.191256    35App    2.206967    71Ap     2.215248  
      36App    2.245958    72Ap     2.250106    73Ap     2.258178  
      37App    2.260208    74Ap     2.287085    75Ap     2.334201  
      38App    2.336398    76Ap     2.356983    77Ap     2.375899  
      39App    2.391504    78Ap     2.393360    40App    2.403795  
      41App    2.419393    79Ap     2.421754    42App    2.451488  
      80Ap     2.460766    43App    2.481553    81Ap     2.501855  
      82Ap     2.521942    44App    2.541852    83Ap     2.546503  
      45App    2.552071    84Ap     2.559130    46App    2.620500  
      85Ap     2.630560    47App    2.646372    86Ap     2.649582  
      87Ap     2.666564    48App    2.682058    49App    2.730465  
      88Ap     2.763740    89Ap     2.782168    90Ap     2.824518  
      91Ap     2.843356    92Ap     2.877244    50App    2.919798  
      93Ap     2.941112    51App    2.989644    94Ap     3.085139  
      95Ap     3.972278    96Ap     4.081435    97Ap     5.155771  
      98Ap     5.561114    99Ap     6.031574  

    Final Occupation by Irrep:
             Ap   App 
    DOCC [    19,    6 ]
    SOCC [     0,    0 ]

  @DF-UKS Final Energy: -1194.53084556629256

   => Energetics <=

    Nuclear Repulsion Energy =            170.3825527720024979
    One-Electron Energy =               -2008.5642346488202747
    Two-Electron Energy =                 702.9920561037976086
    DFT Exchange-Correlation Energy =     -59.5438174686007002
    Empirical Dispersion Energy =           0.0000000000000000
    VV10 Nonlocal Energy =                  0.2025976753282734
    Total Energy =                      -1194.5308455662925553

  UHF NO Occupations:
  HONO-2 :   17 Ap 2.0000000
  HONO-1 :   18 Ap 2.0000000
  HONO-0 :   19 Ap 2.0000000
  LUNO+0 :   20 Ap 0.0000000
  LUNO+1 :   21 Ap 0.0000000
  LUNO+2 :   22 Ap 0.0000000
  LUNO+3 :   23 Ap 0.0000000


Computation Completed


Properties will be evaluated at   0.000000,   0.000000,   0.000000 [a0]

Properties computed using the SCF density matrix

  Nuclear Dipole Moment: [e a0]
     X:     0.0000      Y:     0.0000      Z:     0.0000

  Electronic Dipole Moment: [e a0]
     X:     0.7002      Y:     0.2255      Z:     0.0000

  Dipole Moment: [e a0]
     X:     0.7002      Y:     0.2255      Z:     0.0000     Total:     0.7356

  Dipole Moment: [D]
[...]
   -------------------------------------------------------
    Total     150     150      25      25      25       0
   -------------------------------------------------------

  ==> Integral Setup <==

  ==> DiskDFJK: Density-Fitted J/K Matrices <==

    J tasked:                  Yes
    K tasked:                  Yes
    wK tasked:                 Yes
    Omega:               3.000E-01
    OpenMP threads:              1
    Integrals threads:           1
    Memory [MiB]:             5486
    Algorithm:                Core
    Integral Cache:           NONE
    Schwarz Cutoff:          1E-12
    Fitting Condition:       1E-10

   => Auxiliary Basis Set <=

  Basis Set: (AUG-CC-PVTZ AUX)
    Blend: AUG-CC-PVTZ-JKFIT
    Number of shells: 126
    Number of basis function: 438
    Number of Cartesian functions: 540
    Spherical Harmonics?: true
    Max angular momentum: 4

  Cached 100.0% of DFT collocation blocks in 1.627 [GiB].

  Minimum eigenvalue in the overlap matrix is 2.8896476485E-04.
  Using Symmetric Orthogonalization.

  SCF Guess: Superposition of Atomic Densities via on-the-fly atomic UHF.

  ==> Iterations <==

                           Total Energy        Delta E     RMS |[F,P]|

   @DF-UKS iter SAD: -1193.87651934972769   -1.19388e+03   0.00000e+00 
   @DF-UKS iter   1: -1194.34365534327799   -4.67136e-01   4.85167e-03 DIIS
   @DF-UKS iter   2: -1194.43403294224754   -9.03776e-02   3.94172e-03 DIIS
   @DF-UKS iter   3: -1194.53446768742242   -1.00435e-01   4.18648e-04 DIIS
   @DF-UKS iter   4: -1194.53589790539445   -1.43022e-03   1.12384e-04 DIIS
   @DF-UKS iter   5: -1194.53611043677574   -2.12531e-04   3.19640e-05 DIIS
   @DF-UKS iter   6: -1194.53613387234554   -2.34356e-05   1.32374e-05 DIIS
   @DF-UKS iter   7: -1194.53613806681597   -4.19447e-06   7.22335e-06 DIIS
   @DF-UKS iter   8: -1194.53613928505661   -1.21824e-06   3.04754e-06 DIIS
   @DF-UKS iter   9: -1194.53613961285873   -3.27802e-07   8.14945e-07 DIIS
   @DF-UKS iter  10: -1194.53613964884926   -3.59905e-08   2.00371e-07 DIIS
   @DF-UKS iter  11: -1194.53613965052864   -1.67938e-09   4.40916e-08 DIIS
   @DF-UKS iter  12: -1194.53613965062004   -9.14042e-11   1.58131e-08 DIIS
   @DF-UKS iter  13: -1194.53613965063187   -1.18234e-11   9.26907e-09 DIIS
   @DF-UKS iter  14: -1194.53613965063573   -3.86535e-12   3.67788e-09 DIIS
   @DF-UKS iter  15: -1194.53613965063664   -9.09495e-13   9.46727e-10 DIIS
   @DF-UKS iter  16: -1194.53613965063755   -9.09495e-13   2.35023e-10 DIIS
   @DF-UKS iter  17: -1194.53613965063710    4.54747e-13   9.95029e-11 DIIS
  Energy and wave function converged.


  ==> Post-Iterations <==

   @Spin Contamination Metric:  -8.526512829E-14
   @S^2 Expected:                0.000000000E+00
   @S^2 Observed:               -8.526512829E-14
   @S   Expected:                0.000000000E+00
   @S   Observed:                0.000000000E+00

    Orbital Energies [Eh]
    ---------------------

    Alpha Occupied:                                                       

       1Ap   -88.879734     2Ap   -88.822231     3Ap   -88.822223  
       4Ap    -7.786845     5Ap    -7.733131     6Ap    -7.733112  
       7Ap    -5.697905     8Ap    -5.694756     1App   -5.688437  
       9Ap    -5.645017    10Ap    -5.645000    11Ap    -5.637592  
      12Ap    -5.637572     2App   -5.636884     3App   -5.636866  
      13Ap    -0.533652    14Ap    -0.419612    15Ap    -0.313457  
      16Ap    -0.097476    17Ap    -0.078819     4App   -0.065384  
       5App    0.025283    18Ap     0.033813    19Ap     0.040858  
       6App    0.090036  

    Alpha Virtual:                                                        

      20Ap     0.256460    21Ap     0.258299    22Ap     0.303876  
      23Ap     0.332238     7App    0.336293    24Ap     0.337434  
       8App    0.343233     9App    0.343556    25Ap     0.344537  
      26Ap     0.391374    27Ap     0.402858    28Ap     0.419041  
      29Ap     0.473104    30Ap     0.485974    10App    0.531151  
      11App    0.553907    31Ap     0.554886    32Ap     0.585203  
      33Ap     0.589888    34Ap     0.593761    12App    0.608319  
      35Ap     0.608952    13App    0.625777    14App    0.648068  
      36Ap     0.651761    37Ap     0.653522    38Ap     0.677213  
      15App    0.691560    39Ap     0.718218    16App    0.805881  
      40Ap     0.829610    41Ap     0.875227    17App    0.881107  
      42Ap     0.891176    43Ap     0.893984    44Ap     0.905072  
      18App    0.913311    19App    0.915864    45Ap     0.924972  
      20App    0.933087    46Ap     0.936905    47Ap     0.960696  
      48Ap     1.001102    21App    1.001231    49Ap     1.005485  
      22App    1.025705    50Ap     1.027562    51Ap     1.037008  
      52Ap     1.049592    23App    1.069539    24App    1.107067  
      53Ap     1.107665    25App    1.110299    54Ap     1.151439  
      55Ap     1.156729    26App    1.159016    27App    1.162614  
      56Ap     1.176202    57Ap     1.203031    58Ap     1.221924  
      59Ap     1.295250    28App    1.323164    29App    1.339415  
      60Ap     1.370541    61Ap     1.383095    30App    1.387007  
      62Ap     1.462567    31App    1.471378    63Ap     1.498884  
      64Ap     1.512317    65Ap     1.546103    32App    1.551503  
      33App    1.562694    66Ap     1.644503    67Ap     1.647475  
      68Ap     1.746764    69Ap     1.863077    70Ap     2.182008  
      34App    2.192763    35App    2.203651    71Ap     2.220773  
      72Ap     2.243336    36App    2.249238    37App    2.254373  
      73Ap     2.268347    74Ap     2.269388    75Ap     2.333391  
      38App    2.340783    76Ap     2.357181    39App    2.396264  
      40App    2.396650    77Ap     2.397768    78Ap     2.399479  
      41App    2.412575    79Ap     2.434513    80Ap     2.466194  
      42App    2.468692    43App    2.481262    81Ap     2.509776  
      82Ap     2.521885    44App    2.538921    83Ap     2.547563  
      45App    2.551841    84Ap     2.566031    85Ap     2.628445  
      46App    2.629244    47App    2.632872    86Ap     2.643272  
      87Ap     2.643357    48App    2.644783    49App    2.688599  
      88Ap     2.727624    89Ap     2.746395    90Ap     2.793819  
      91Ap     2.806971    92Ap     2.809192    93Ap     2.912085  
      50App    2.912488    51App    2.913126    94Ap     2.999816  
      95Ap     3.944997    96Ap     3.979657    97Ap     4.959994  
      98Ap     5.523311    99Ap     6.033715  

    Beta Occupied:                                                        

       1Ap   -88.879734     2Ap   -88.822231     3Ap   -88.822223  
       4Ap    -7.786845     5Ap    -7.733131     6Ap    -7.733112  
       7Ap    -5.697905     8Ap    -5.694756     1App   -5.688437  
       9Ap    -5.645017    10Ap    -5.645000    11Ap    -5.637592  
      12Ap    -5.637572     2App   -5.636884     3App   -5.636866  
      13Ap    -0.533652    14Ap    -0.419612    15Ap    -0.313457  
      16Ap    -0.097476    17Ap    -0.078819     4App   -0.065384  
       5App    0.025283    18Ap     0.033813    19Ap     0.040858  
       6App    0.090036  

    Beta Virtual:                                                         

      20Ap     0.256460    21Ap     0.258299    22Ap     0.303876  
      23Ap     0.332238     7App    0.336293    24Ap     0.337434  
       8App    0.343233     9App    0.343556    25Ap     0.344537  
      26Ap     0.391374    27Ap     0.402858    28Ap     0.419041  
      29Ap     0.473104    30Ap     0.485974    10App    0.531151  
      11App    0.553907    31Ap     0.554886    32Ap     0.585203  
      33Ap     0.589888    34Ap     0.593761    12App    0.608319  
      35Ap     0.608952    13App    0.625777    14App    0.648068  
      36Ap     0.651761    37Ap     0.653522    38Ap     0.677213  
      15App    0.691560    39Ap     0.718218    16App    0.805881  
      40Ap     0.829610    41Ap     0.875227    17App    0.881107  
      42Ap     0.891176    43Ap     0.893984    44Ap     0.905072  
      18App    0.913311    19App    0.915864    45Ap     0.924972  
      20App    0.933087    46Ap     0.936905    47Ap     0.960696  
      48Ap     1.001102    21App    1.001231    49Ap     1.005485  
      22App    1.025705    50Ap     1.027562    51Ap     1.037008  
      52Ap     1.049592    23App    1.069539    24App    1.107067  
      53Ap     1.107665    25App    1.110299    54Ap     1.151439  
      55Ap     1.156729    26App    1.159016    27App    1.162614  
      56Ap     1.176202    57Ap     1.203031    58Ap     1.221924  
      59Ap     1.295250    28App    1.323164    29App    1.339415  
      60Ap     1.370541    61Ap     1.383095    30App    1.387007  
      62Ap     1.462567    31App    1.471378    63Ap     1.498884  
      64Ap     1.512317    65Ap     1.546103    32App    1.551503  
      33App    1.562694    66Ap     1.644503    67Ap     1.647475  
      68Ap     1.746764    69Ap     1.863077    70Ap     2.182008  
      34App    2.192763    35App    2.203651    71Ap     2.220773  
      72Ap     2.243336    36App    2.249238    37App    2.254373  
      73Ap     2.268347    74Ap     2.269388    75Ap     2.333391  
      38App    2.340783    76Ap     2.357181    39App    2.396264  
      40App    2.396650    77Ap     2.397768    78Ap     2.399479  
      41App    2.412575    79Ap     2.434513    80Ap     2.466194  
      42App    2.468692    43App    2.481262    81Ap     2.509776  
      82Ap     2.521885    44App    2.538921    83Ap     2.547563  
      45App    2.551841    84Ap     2.566031    85Ap     2.628445  
      46App    2.629244    47App    2.632872    86Ap     2.643272  
      87Ap     2.643357    48App    2.644783    49App    2.688599  
      88Ap     2.727624    89Ap     2.746395    90Ap     2.793819  
      91Ap     2.806971    92Ap     2.809192    93Ap     2.912085  
      50App    2.912488    51App    2.913126    94Ap     2.999816  
      95Ap     3.944997    96Ap     3.979657    97Ap     4.959994  
      98Ap     5.523311    99Ap     6.033715  

    Final Occupation by Irrep:
             Ap   App 
    DOCC [    19,    6 ]
    SOCC [     0,    0 ]

  @DF-UKS Final Energy: -1194.53613965063710

   => Energetics <=

    Nuclear Repulsion Energy =            167.2155978339620219
    One-Electron Energy =               -2002.2378445686103987
    Two-Electron Energy =                 699.7983571330009909
    DFT Exchange-Correlation Energy =     -59.5149361217699138
    Empirical Dispersion Energy =           0.0000000000000000
    VV10 Nonlocal Energy =                  0.2026860727802482
    Total Energy =                      -1194.5361396506370966

  UHF NO Occupations:
  HONO-2 :   18 Ap 2.0000000
  HONO-1 :    6App 2.0000000
  HONO-0 :   19 Ap 2.0000000
  LUNO+0 :   20 Ap 0.0000000
  LUNO+1 :   21 Ap 0.0000000
  LUNO+2 :   22 Ap 0.0000000
  LUNO+3 :    7App 0.0000000


Computation Completed


Properties will be evaluated at   0.000000,   0.000000,   0.000000 [a0]

Properties computed using the SCF density matrix

  Nuclear Dipole Moment: [e a0]
     X:     0.0000      Y:     0.0000      Z:     0.0000

  Electronic Dipole Moment: [e a0]
     X:     0.5971      Y:     0.4004      Z:     0.0000

  Dipole Moment: [e a0]
     X:     0.5971      Y:     0.4004      Z:     0.0000     Total:     0.7189

  Dipole Moment: [D]
     X:     1.5176      Y:     1.0177      Z:     0.0000     Total:     1.8272


*** tstop() called on c2-18.compute.lan at Tue Feb  2 19:28:42 2021
Module time:
	user time   =     332.04 seconds =       5.53 minutes
	system time =       1.64 seconds =       0.03 minutes
	total time  =        334 seconds =       5.57 minutes
Total time:
	user time   =   16590.15 seconds =     276.50 minutes
	system time =     119.30 seconds =       1.99 minutes
	total time  =      17335 seconds =     288.92 minutes

         ----------------------------------------------------------
                                   FINDIF
                     R. A. King and Jonathon Misiewicz
         ---------------------------------------------------------

  Computing second-derivative from energies using projected, 
  symmetry-adapted, cartesian coordinates.

  13 energies passed in, including the reference geometry.
    Using 3-point formula.
    Energy without displacement: -1194.5361398318
    Check energies below for precision!
    0: -1        :     -1194.5361397478
    0: 1         :     -1194.5361397501
    1: -1        :     -1194.5361397329
    1: 1         :     -1194.5361397311
    2: -1        :     -1194.5361397882
    2: 1         :     -1194.5361397893
    0: 1, 1: 1   :     -1194.5361396798
    0: -1, 1: -1 :     -1194.5361396813
    0: 1, 2: 1   :     -1194.5361396406
    0: -1, 2: -1 :     -1194.5361396408
    1: 1, 2: 1   :     -1194.5361396465
    1: -1, 2: -1 :     -1194.5361396506

-------------------------------------------------------------


  ==> Harmonic Vibrational Analysis <==

  non-mass-weighted Hessian:       Symmetric? True   Hermitian? True   Lin Dep Dim?  6 (0)
  projection of translations (True) and rotations (True) removed 6 degrees of freedom (6)
  total projector:                 Symmetric? True   Hermitian? True   Lin Dep Dim?  6 (6)
  mass-weighted Hessian:           Symmetric? True   Hermitian? True   Lin Dep Dim?  6 (0)
  pre-proj  low-frequency mode:    0.0000i [cm^-1]
  pre-proj  low-frequency mode:    0.0000i [cm^-1]
  pre-proj  low-frequency mode:    0.0000  [cm^-1]
  pre-proj  low-frequency mode:    0.0000  [cm^-1]
  pre-proj  low-frequency mode:    0.0000  [cm^-1]
  pre-proj  low-frequency mode:    0.0000  [cm^-1]
  pre-proj  all modes:['0.0000i' '0.0000i' '0.0000' '0.0000' '0.0000' '0.0000' '190.2028'
 '458.6549' '480.5060']
  projected mass-weighted Hessian: Symmetric? True   Hermitian? True   Lin Dep Dim?  6 (6)
  post-proj low-frequency mode:    0.0000i [cm^-1] (TR)
  post-proj low-frequency mode:    0.0000i [cm^-1] (TR)
  post-proj low-frequency mode:    0.0000  [cm^-1] (TR)
  post-proj low-frequency mode:    0.0000  [cm^-1] (TR)
  post-proj low-frequency mode:    0.0000  [cm^-1] (TR)
  post-proj low-frequency mode:    0.0000  [cm^-1] (TR)
  post-proj  all modes:['0.0000i' '0.0000i' '0.0000' '0.0000' '0.0000' '0.0000' '190.2028'
 '458.6549' '480.5060']

  Vibration                       7                   8                   9           
  Freq [cm^-1]                 190.2028            458.6549            480.5060       
  Irrep                           Ap                  Ap                  Ap          
  Reduced mass [u]             31.9721             31.9721             31.9721        
  Force const [mDyne/A]         0.6815              3.9627              4.3493        
  Turning point v=0 [a0]        0.1407              0.0906              0.0885        
  RMS dev v=0 [a0 u^1/2]        0.5626              0.3623              0.3540        
  Char temp [K]                273.6595            659.9022            691.3411       
  ----------------------------------------------------------------------------------
      1   S               -0.38 -0.25  0.00    0.58  0.34  0.00   -0.39  0.65  0.00   
      2   S                0.52 -0.36  0.00   -0.06 -0.49 -0.00   -0.01 -0.48  0.00   
      3   S               -0.13  0.61  0.00   -0.52  0.15 -0.00    0.40 -0.17  0.00   

  ==> Thermochemistry Components <==

  Entropy, S
    Electronic S            0.000 [cal/(mol K)]        0.000 [J/(mol K)]       0.00000000 [mEh/K] (multiplicity = 1)
    Translational S        39.594 [cal/(mol K)]      165.660 [J/(mol K)]       0.06309659 [mEh/K] (mol. weight = 95.9162 [u], P = 101325.00 [Pa])
    Rotational S           25.588 [cal/(mol K)]      107.059 [J/(mol K)]       0.04077674 [mEh/K] (symmetry no. = 1)
    Vibrational S           3.705 [cal/(mol K)]       15.500 [J/(mol K)]       0.00590362 [mEh/K]
  Total S                  68.886 [cal/(mol K)]      288.219 [J/(mol K)]       0.10977695 [mEh/K]
  Correction S              0.000 [cal/(mol K)]        0.000 [J/(mol K)]       0.00000000 [mEh/K]

  Constant volume heat capacity, Cv
    Electronic Cv           0.000 [cal/(mol K)]        0.000 [J/(mol K)]       0.00000000 [mEh/K]
    Translational Cv        2.981 [cal/(mol K)]       12.472 [J/(mol K)]       0.00475022 [mEh/K]
    Rotational Cv           2.981 [cal/(mol K)]       12.472 [J/(mol K)]       0.00475022 [mEh/K]
    Vibrational Cv          4.488 [cal/(mol K)]       18.780 [J/(mol K)]       0.00715274 [mEh/K]
  Total Cv                 10.450 [cal/(mol K)]       43.723 [J/(mol K)]       0.01665317 [mEh/K]
  Correction Cv             0.000 [cal/(mol K)]        0.000 [J/(mol K)]       0.00000000 [mEh/K]

  Constant pressure heat capacity, Cp
    Electronic Cp           0.000 [cal/(mol K)]        0.000 [J/(mol K)]       0.00000000 [mEh/K]
    Translational Cp        4.968 [cal/(mol K)]       20.786 [J/(mol K)]       0.00791703 [mEh/K]
    Rotational Cp           2.981 [cal/(mol K)]       12.472 [J/(mol K)]       0.00475022 [mEh/K]
    Vibrational Cp          4.488 [cal/(mol K)]       18.780 [J/(mol K)]       0.00715274 [mEh/K]
  Total Cp                 12.437 [cal/(mol K)]       52.037 [J/(mol K)]       0.01981999 [mEh/K]
  Correction Cp             0.000 [cal/(mol K)]        0.000 [J/(mol K)]       0.00000000 [mEh/K]

  ==> Thermochemistry Energy Analysis <==

  Raw electronic energy, E0
  Total E0, Electronic energy at well bottom at 0 [K]                -1194.53613983 [Eh]

  Zero-point energy, ZPE_vib = Sum_i nu_i / 2
    Electronic ZPE          0.000 [kcal/mol]        0.000 [kJ/mol]       0.00000000 [Eh]
    Translational ZPE       0.000 [kcal/mol]        0.000 [kJ/mol]       0.00000000 [Eh]
    Rotational ZPE          0.000 [kcal/mol]        0.000 [kJ/mol]       0.00000000 [Eh]
    Vibrational ZPE         1.615 [kcal/mol]        6.755 [kJ/mol]       0.00257288 [Eh]         564.682 [cm^-1]
  Correction ZPE            1.615 [kcal/mol]        6.755 [kJ/mol]       0.00257288 [Eh]         564.682 [cm^-1]
  Total ZPE, Electronic energy at 0 [K]                              -1194.53356695 [Eh]

  Thermal Energy, E (includes ZPE)
    Electronic E            0.000 [kcal/mol]        0.000 [kJ/mol]       0.00000000 [Eh]
    Translational E         0.889 [kcal/mol]        3.718 [kJ/mol]       0.00141628 [Eh]
    Rotational E            0.889 [kcal/mol]        3.718 [kJ/mol]       0.00141628 [Eh]
    Vibrational E           2.287 [kcal/mol]        9.569 [kJ/mol]       0.00364459 [Eh]
  Correction E              4.064 [kcal/mol]       17.006 [kJ/mol]       0.00647715 [Eh]
  Total E, Electronic energy at  298.15 [K]                          -1194.52966268 [Eh]

  Enthalpy, H_trans = E_trans + k_B * T
    Electronic H            0.000 [kcal/mol]        0.000 [kJ/mol]       0.00000000 [Eh]
    Translational H         1.481 [kcal/mol]        6.197 [kJ/mol]       0.00236046 [Eh]
    Rotational H            0.889 [kcal/mol]        3.718 [kJ/mol]       0.00141628 [Eh]
    Vibrational H           2.287 [kcal/mol]        9.569 [kJ/mol]       0.00364459 [Eh]
  Correction H              4.657 [kcal/mol]       19.485 [kJ/mol]       0.00742133 [Eh]
  Total H, Enthalpy at  298.15 [K]                                   -1194.52871850 [Eh]

  Gibbs free energy, G = H - T * S
    Electronic G            0.000 [kcal/mol]        0.000 [kJ/mol]       0.00000000 [Eh]
    Translational G       -10.324 [kcal/mol]      -43.194 [kJ/mol]      -0.01645179 [Eh]
    Rotational G           -6.740 [kcal/mol]      -28.201 [kJ/mol]      -0.01074131 [Eh]
    Vibrational G           1.182 [kcal/mol]        4.948 [kJ/mol]       0.00188443 [Eh]
  Correction G            -15.881 [kcal/mol]      -66.448 [kJ/mol]      -0.02530867 [Eh]
  Total G, Free enthalpy at  298.15 [K]                              -1194.56144850 [Eh]

    Psi4 stopped on: Tuesday, 02 February 2021 07:28PM
    Psi4 wall time for execution: 4:48:56.44

*** Psi4 exiting successfully. Buy a developer a beer!
