
    -----------------------------------------------------------------------
          Psi4: An Open-Source Ab Initio Electronic Structure Package
                               Psi4 1.4a2.dev191 

                         Git: Rev {master} 0ab5346 


    R. M. Parrish, L. A. Burns, D. G. A. Smith, A. C. Simmonett,
    A. E. DePrince III, E. G. Hohenstein, U. Bozkaya, A. Yu. Sokolov,
    R. Di Remigio, R. M. Richard, J. F. Gonthier, A. M. James,
    H. R. McAlexander, A. Kumar, M. Saitow, X. Wang, B. P. Pritchard,
    P. Verma, H. F. Schaefer III, K. Patkowski, R. A. King, E. F. Valeev,
    F. A. Evangelista, J. M. Turney, T. D. Crawford, and C. D. Sherrill,
    J. Chem. Theory Comput. 13(7) pp 3185--3197 (2017).
    (doi: 10.1021/acs.jctc.7b00174)


                         Additional Contributions by
    P. Kraus, H. Kruse, M. H. Lechner, M. C. Schieber, R. A. Shaw,
    A. Alenaizan, R. Galvelis, Z. L. Glick, S. Lehtola, and J. P. Misiewicz

    -----------------------------------------------------------------------


    Psi4 started on: Friday, 29 January 2021 10:52AM

    Process ID: 19580
    Host:       c2-3.compute.lan
    PSIDATADIR: /apps/gb/PSI4/1.4.0/share/psi4
    Memory:     500.0 MiB
    Threads:    1
    
  ==> Input File <==

--------------------------------------------------------------------------
memory 10 GB

molecule  {
-2 1
S
S 1 R1
S 1 R2 2 A1
R1 = 1.5
R2 = 1.5
A1 = 120.0
}

set {
reference uks
basis aug-cc-pvtz
}

optimize('b3lyp')
--------------------------------------------------------------------------

  Memory set to   9.313 GiB by Python driver.
gradient() will perform analytic gradient computation.

*** tstart() called on c2-3.compute.lan
*** at Fri Jan 29 10:52:42 2021

   => Loading Basis Set <=

    Name: AUG-CC-PVTZ
    Role: ORBITAL
    Keyword: BASIS
    atoms 1-3 entry S          line   906 file /apps/gb/PSI4/1.4.0/share/psi4/basis/aug-cc-pvtz.gbs 


         ---------------------------------------------------------
                                   SCF
               by Justin Turney, Rob Parrish, Andy Simmonett
                          and Daniel G. A. Smith
                              UKS Reference
                        1 Threads,   9536 MiB Core
         ---------------------------------------------------------

  ==> Geometry <==

    Molecular point group: c2v
    Full point group: C2v

    Geometry (in Angstrom), charge = -2, multiplicity = 1:

       Center              X                  Y                   Z               Mass       
    ------------   -----------------  -----------------  -----------------  -----------------
         S            0.000000000000     0.000000000000    -0.500000000000    31.972071174400
         S            0.000000000000    -1.299038105677     0.250000000000    31.972071174400
         S            0.000000000000     1.299038105677     0.250000000000    31.972071174400

  Running in c2v symmetry.

  Rotational constants: A =      1.40603  B =      0.15623  C =      0.14060 [cm^-1]
  Rotational constants: A =  42151.70639  B =   4683.52293  C =   4215.17064 [MHz]
  Nuclear repulsion =  232.768004500367368

  Charge       = -2
  Multiplicity = 1
  Electrons    = 50
  Nalpha       = 25
  Nbeta        = 25

  ==> Algorithm <==

  SCF Algorithm Type is DF.
  DIIS enabled.
  MOM disabled.
  Fractional occupation disabled.
  Guess Type is SAD.
  Energy threshold   = 1.00e-08
  Density threshold  = 1.00e-08
  Integral threshold = 0.00e+00

  ==> Primary Basis <==

  Basis Set: AUG-CC-PVTZ
    Blend: AUG-CC-PVTZ
    Number of shells: 48
    Number of basis function: 150
    Number of Cartesian functions: 177
    Spherical Harmonics?: true
    Max angular momentum: 3

  ==> DFT Potential <==

   => Composite Functional: B3LYP <= 

    B3LYP Hyb-GGA Exchange-Correlation Functional

    P. J. Stephens, F. J. Devlin, C. F. Chabalowski, and M. J. Frisch, J. Phys. Chem. 98, 11623 (1994)

    Deriv               =              1
    GGA                 =           TRUE
    Meta                =          FALSE

    Exchange Hybrid     =           TRUE
    MP2 Hybrid          =          FALSE

   => Exchange Functionals <=

    0.0800   Slater exchange
    0.7200         Becke 88

   => Exact (HF) Exchange <=

    0.2000               HF 

   => Correlation Functionals <=

    0.1900   Vosko, Wilk & Nusair (VWN5_RPA)
    0.8100   Lee, Yang & Parr

   => Molecular Quadrature <=

    Radial Scheme          =       TREUTLER
    Pruning Scheme         =           NONE
    Nuclear Scheme         =       TREUTLER

    BS radius alpha        =              1
    Pruning alpha          =              1
    Radial Points          =             75
    Spherical Points       =            302
    Total Points           =          65714
    Total Blocks           =            600
    Max Points             =            256
    Max Functions          =            150
    Weights Tolerance      =       1.00E-15

   => Loading Basis Set <=

    Name: (AUG-CC-PVTZ AUX)
    Role: JKFIT
    Keyword: DF_BASIS_SCF
    atoms 1-3 entry S          line   730 file /apps/gb/PSI4/1.4.0/share/psi4/basis/aug-cc-pvtz-jkfit.gbs 

  ==> Pre-Iterations <==

   -------------------------------------------------------
    Irrep   Nso     Nmo     Nalpha   Nbeta   Ndocc  Nsocc
   -------------------------------------------------------
     A1        54      54       0       0       0       0
     A2        22      22       0       0       0       0
     B1        29      29       0       0       0       0
     B2        45      45       0       0       0       0
   -------------------------------------------------------
    Total     150     150      25      25      25       0
   -------------------------------------------------------

  ==> Integral Setup <==

  DFHelper Memory: AOs need 0.080 GiB; user supplied 6.720 GiB. Using in-core AOs.

  ==> MemDFJK: Density-Fitted J/K Matrices <==

    J tasked:                   Yes
    K tasked:                   Yes
    wK tasked:                   No
    OpenMP threads:               1
    Memory [MiB]:              6880
    Algorithm:                 Core
    Schwarz Cutoff:           1E-12
    Mask sparsity (%):       0.0000
    Fitting Condition:        1E-10

   => Auxiliary Basis Set <=

  Basis Set: (AUG-CC-PVTZ AUX)
    Blend: AUG-CC-PVTZ-JKFIT
    Number of shells: 126
    Number of basis function: 438
    Number of Cartesian functions: 540
    Spherical Harmonics?: true
    Max angular momentum: 4

  Cached 100.0% of DFT collocation blocks in 0.265 [GiB].

  Minimum eigenvalue in the overlap matrix is 5.9779644928E-05.
  Using Symmetric Orthogonalization.

  SCF Guess: Superposition of Atomic Densities via on-the-fly atomic UHF.

  ==> Iterations <==

                           Total Energy        Delta E     RMS |[F,P]|

   @DF-UKS iter SAD: -1196.20457604297576   -1.19620e+03   0.00000e+00 
    Occupation by irrep:
             A1    A2    B1    B2 
    DOCC [    12,    2,    3,    8 ]
    SOCC [     0,    0,    0,    0 ]

   @DF-UKS iter   1: -1193.45860907462952    2.74597e+00   1.28977e-02 DIIS
    Occupation by irrep:
             A1    A2    B1    B2 
    DOCC [    11,    2,    4,    8 ]
    SOCC [     0,    0,    0,    0 ]

   @DF-UKS iter   2: -1186.61772136569653    6.84089e+00   3.55201e-02 DIIS
    Occupation by irrep:
             A1    A2    B1    B2 
    DOCC [    11,    2,    3,    9 ]
    SOCC [     0,    0,    0,    0 ]

   @DF-UKS iter   3: -1194.05797044593146   -7.44025e+00   1.78155e-03 DIIS
   @DF-UKS iter   4: -1193.93144176272108    1.26529e-01   5.21152e-03 DIIS
    Occupation by irrep:
             A1    A2    B1    B2 
    DOCC [    11,    2,    4,    8 ]
    SOCC [     0,    0,    0,    0 ]

   @DF-UKS iter   5: -1194.03106542988235   -9.96237e-02   3.12662e-03 DIIS
   @DF-UKS iter   6: -1194.02375472654262    7.31070e-03   2.98413e-03 DIIS
   @DF-UKS iter   7: -1194.02332505770687    4.29669e-04   3.00897e-03 DIIS
   @DF-UKS iter   8: -1194.02391828739042   -5.93230e-04   2.99349e-03 DIIS
   @DF-UKS iter   9: -1194.04445783928304   -2.05396e-02   2.52342e-03 DIIS
   @DF-UKS iter  10: -1194.06889339851750   -2.44356e-02   1.85752e-03 DIIS
   @DF-UKS iter  11: -1194.09152421089425   -2.26308e-02   8.43374e-04 DIIS
   @DF-UKS iter  12: -1194.09276270057626   -1.23849e-03   7.46577e-04 DIIS
   @DF-UKS iter  13: -1194.09616634320219   -3.40364e-03   2.45771e-04 DIIS
   @DF-UKS iter  14: -1194.09655961173326   -3.93269e-04   4.90114e-05 DIIS
   @DF-UKS iter  15: -1194.09657582977388   -1.62180e-05   7.63471e-06 DIIS
   @DF-UKS iter  16: -1194.09657751137684   -1.68160e-06   2.15050e-06 DIIS
   @DF-UKS iter  17: -1194.09657785830404   -3.46927e-07   7.56134e-07 DIIS
   @DF-UKS iter  18: -1194.09657789301764   -3.47136e-08   1.71075e-07 DIIS
   @DF-UKS iter  19: -1194.09657789371317   -6.95536e-10   2.43891e-08 DIIS
   @DF-UKS iter  20: -1194.09657789371886   -5.68434e-12   1.73302e-09 DIIS
  Energy and wave function converged.


  ==> Post-Iterations <==

   @Spin Contamination Metric:   1.421085472E-14
   @S^2 Expected:                0.000000000E+00
   @S^2 Observed:                1.421085472E-14
   @S   Expected:                0.000000000E+00
   @S   Observed:                0.000000000E+00

    Orbital Energies [Eh]
    ---------------------

    Alpha Occupied:                                                       

       1A1   -88.541828     2A1   -88.498540     1B2   -88.498540  
       3A1    -7.629188     2B2    -7.576560     4A1    -7.576446  
       3B2    -5.593996     5A1    -5.584651     1B1    -5.582261  
       6A1    -5.540133     4B2    -5.539620     1A2    -5.532536  
       2B1    -5.532524     5B2    -5.530929     7A1    -5.530923  
       8A1    -0.665670     6B2    -0.462574     9A1    -0.169449  
       3B1    -0.127472    10A1    -0.112197     7B2    -0.070461  
       2A2     0.052555     8B2     0.084805    11A1     0.124529  
       4B1     0.214953  

    Alpha Virtual:                                                        

       9B2     0.227421    12A1     0.232193    13A1     0.259861  
       3A2     0.283874     5B1     0.288445    10B2     0.290069  
      14A1     0.291086     6B1     0.309109    11B2     0.312795  
      15A1     0.329892    16A1     0.382505    12B2     0.399357  
      17A1     0.420470     7B1     0.439012    18A1     0.466825  
      13B2     0.468766     4A2     0.479777    14B2     0.493543  
      19A1     0.510021    15B2     0.534028     8B1     0.538525  
       5A2     0.541759    20A1     0.563467     9B1     0.585052  
      16B2     0.601636    21A1     0.604130     6A2     0.643398  
      22A1     0.663624    10B1     0.679539    17B2     0.682106  
      23A1     0.709102     7A2     0.739117    18B2     0.766958  
      24A1     0.769391    19B2     0.772552    11B1     0.776651  
      25A1     0.780833    26A1     0.808649    12B1     0.817604  
      20B2     0.847424     8A2     0.847920    21B2     0.889014  
       9A2     0.905412    27A1     0.908879    13B1     0.911678  
      28A1     0.927021    29A1     0.979692    22B2     1.007372  
      14B1     1.034944    23B2     1.047237    15B1     1.082915  
      30A1     1.103699    10A2     1.113144    24B2     1.150320  
      11A2     1.155386    16B1     1.163145    31A1     1.170491  
      32A1     1.236387    25B2     1.263674    33A1     1.296411  
      26B2     1.337384    17B1     1.348393    12A2     1.360256  
      34A1     1.377384    27B2     1.395564    13A2     1.397081  
      28B2     1.452822    35A1     1.513165    18B1     1.526238  
      19B1     1.557945    29B2     1.592479    36A1     1.610550  
      14A2     1.642709    30B2     1.656096    37A1     1.781071  
      31B2     1.856309    38A1     1.874971    20B1     1.955666  
      15A2     1.977534    39A1     2.013620    21B1     2.021107  
      32B2     2.060665    40A1     2.076386    16A2     2.146697  
      17A2     2.179833    41A1     2.185684    22B1     2.190682  
      33B2     2.201239    42A1     2.225283    43A1     2.280596  
      23B1     2.297081    34B2     2.315979    44A1     2.326880  
      35B2     2.347706    36B2     2.358512    24B1     2.366846  
      18A2     2.421784    45A1     2.436523    37B2     2.454006  
      25B1     2.457279    19A2     2.481713    46A1     2.519913  
      38B2     2.657991    39B2     2.681523    26B1     2.682006  
      20A2     2.718374    47A1     2.774166    27B1     2.842601  
      48A1     2.898269    21A2     2.939661    28B1     3.068932  
      40B2     3.124038    49A1     3.140809    41B2     3.185145  
      22A2     3.205160    50A1     3.256219    29B1     3.323432  
      51A1     3.504198    42B2     3.506378    43B2     3.722017  
      44B2     3.764500    52A1     3.908463    53A1     7.110529  
      45B2     7.542604    54A1     8.928534  

    Beta Occupied:                                                        

       1A1   -88.541828     2A1   -88.498540     1B2   -88.498540  
       3A1    -7.629188     2B2    -7.576560     4A1    -7.576446  
       3B2    -5.593996     5A1    -5.584651     1B1    -5.582261  
       6A1    -5.540133     4B2    -5.539620     1A2    -5.532536  
       2B1    -5.532524     5B2    -5.530929     7A1    -5.530923  
       8A1    -0.665670     6B2    -0.462574     9A1    -0.169449  
       3B1    -0.127472    10A1    -0.112197     7B2    -0.070461  
       2A2     0.052555     8B2     0.084805    11A1     0.124529  
       4B1     0.214953  

    Beta Virtual:                                                         

       9B2     0.227421    12A1     0.232193    13A1     0.259861  
       3A2     0.283874     5B1     0.288445    10B2     0.290069  
      14A1     0.291086     6B1     0.309109    11B2     0.312795  
      15A1     0.329892    16A1     0.382505    12B2     0.399357  
      17A1     0.420470     7B1     0.439012    18A1     0.466825  
      13B2     0.468766     4A2     0.479777    14B2     0.493543  
      19A1     0.510021    15B2     0.534028     8B1     0.538525  
       5A2     0.541759    20A1     0.563467     9B1     0.585052  
      16B2     0.601636    21A1     0.604130     6A2     0.643398  
      22A1     0.663624    10B1     0.679539    17B2     0.682106  
      23A1     0.709102     7A2     0.739117    18B2     0.766958  
      24A1     0.769391    19B2     0.772552    11B1     0.776651  
      25A1     0.780833    26A1     0.808649    12B1     0.817604  
      20B2     0.847424     8A2     0.847920    21B2     0.889014  
       9A2     0.905412    27A1     0.908879    13B1     0.911678  
      28A1     0.927021    29A1     0.979692    22B2     1.007372  
      14B1     1.034944    23B2     1.047237    15B1     1.082915  
      30A1     1.103699    10A2     1.113144    24B2     1.150320  
      11A2     1.155386    16B1     1.163145    31A1     1.170491  
      32A1     1.236387    25B2     1.263674    33A1     1.296411  
      26B2     1.337384    17B1     1.348393    12A2     1.360256  
      34A1     1.377384    27B2     1.395564    13A2     1.397081  
      28B2     1.452822    35A1     1.513165    18B1     1.526238  
      19B1     1.557945    29B2     1.592479    36A1     1.610550  
      14A2     1.642709    30B2     1.656096    37A1     1.781071  
      31B2     1.856309    38A1     1.874971    20B1     1.955666  
      15A2     1.977534    39A1     2.013620    21B1     2.021107  
      32B2     2.060665    40A1     2.076386    16A2     2.146697  
      17A2     2.179833    41A1     2.185684    22B1     2.190682  
      33B2     2.201239    42A1     2.225283    43A1     2.280596  
      23B1     2.297081    34B2     2.315979    44A1     2.326880  
      35B2     2.347706    36B2     2.358512    24B1     2.366846  
      18A2     2.421784    45A1     2.436523    37B2     2.454006  
      25B1     2.457279    19A2     2.481713    46A1     2.519913  
      38B2     2.657991    39B2     2.681523    26B1     2.682006  
      20A2     2.718374    47A1     2.774166    27B1     2.842601  
      48A1     2.898269    21A2     2.939661    28B1     3.068932  
      40B2     3.124038    49A1     3.140809    41B2     3.185145  
      22A2     3.205160    50A1     3.256219    29B1     3.323432  
      51A1     3.504198    42B2     3.506378    43B2     3.722017  
      44B2     3.764500    52A1     3.908463    53A1     7.110529  
      45B2     7.542604    54A1     8.928534  

    Final Occupation by Irrep:
             A1    A2    B1    B2 
    DOCC [    11,    2,    4,    8 ]
    SOCC [     0,    0,    0,    0 ]

  @DF-UKS Final Energy: -1194.09657789371886

   => Energetics <=

    Nuclear Repulsion Energy =            232.7680045003673683
    One-Electron Energy =               -2130.2437003189670577
    Two-Electron Energy =                 766.1883378200947163
    DFT Exchange-Correlation Energy =     -62.8092198952141629
    Empirical Dispersion Energy =           0.0000000000000000
    VV10 Nonlocal Energy =                  0.0000000000000000
    Total Energy =                      -1194.0965778937190862

  UHF NO Occupations:
  HONO-2 :   10 A1 2.0000000
  HONO-1 :    8 B2 2.0000000
  HONO-0 :   11 A1 2.0000000
  LUNO+0 :   12 A1 0.0000000
  LUNO+1 :    5 B1 0.0000000
  LUNO+2 :   13 A1 0.0000000
  LUNO+3 :    6 B1 0.0000000


Computation Completed


Properties will be evaluated at   0.000000,   0.000000,   0.000000 [a0]

Properties computed using the SCF density matrix

  Nuclear Dipole Moment: [e a0]
     X:     0.0000      Y:     0.0000      Z:     0.0000

  Electronic Dipole Moment: [e a0]
     X:     0.0000      Y:     0.0000      Z:    -1.9311

  Dipole Moment: [e a0]
     X:     0.0000      Y:     0.0000      Z:    -1.9311     Total:     1.9311

  Dipole Moment: [D]
     X:     0.0000      Y:     0.0000      Z:    -4.9084     Total:     4.9084


*** tstop() called on c2-3.compute.lan at Fri Jan 29 10:53:05 2021
Module time:
	user time   =      23.02 seconds =       0.38 minutes
	system time =       0.41 seconds =       0.01 minutes
	total time  =         23 seconds =       0.38 minutes
Total time:
	user time   =      23.02 seconds =       0.38 minutes
	system time =       0.41 seconds =       0.01 minutes
	total time  =         23 seconds =       0.38 minutes

*** tstart() called on c2-3.compute.lan
*** at Fri Jan 29 10:53:05 2021


         ------------------------------------------------------------
                                   SCF GRAD                          
                          Rob Parrish, Justin Turney,                
                       Andy Simmonett, and Alex Sokolov              
         ------------------------------------------------------------

  ==> Geometry <==

    Molecular point group: c2v
    Full point group: C2v

    Geometry (in Angstrom), charge = -2, multiplicity = 1:

       Center              X                  Y                   Z               Mass       
    ------------   -----------------  -----------------  -----------------  -----------------
         S            0.000000000000     0.000000000000    -0.500000000000    31.972071174400
         S            0.000000000000    -1.299038105677     0.250000000000    31.972071174400
         S            0.000000000000     1.299038105677     0.250000000000    31.972071174400

  Nuclear repulsion =  232.768004500367368

  ==> Basis Set <==

  Basis Set: AUG-CC-PVTZ
    Blend: AUG-CC-PVTZ
    Number of shells: 48
    Number of basis function: 150
    Number of Cartesian functions: 177
    Spherical Harmonics?: true
    Max angular momentum: 3

  ==> DFJKGrad: Density-Fitted SCF Gradients <==

    Gradient:                    1
    J tasked:                  Yes
    K tasked:                  Yes
    wK tasked:                  No
    OpenMP threads:              1
    Integrals threads:           1
    Memory [MiB]:             7152
    Schwarz Cutoff:          0E+00
    Fitting Condition:       1E-10

   => Auxiliary Basis Set <=

  Basis Set: (AUG-CC-PVTZ AUX)
    Blend: AUG-CC-PVTZ-JKFIT
    Number of shells: 126
    Number of basis function: 438
    Number of Cartesian functions: 540
    Spherical Harmonics?: true
    Max angular momentum: 4

  ==> DFT Potential <==

   => Composite Functional: B3LYP <= 

    B3LYP Hyb-GGA Exchange-Correlation Functional

    P. J. Stephens, F. J. Devlin, C. F. Chabalowski, and M. J. Frisch, J. Phys. Chem. 98, 11623 (1994)

    Deriv               =              1
    GGA                 =           TRUE
    Meta                =          FALSE

    Exchange Hybrid     =           TRUE
    MP2 Hybrid          =          FALSE

   => Exchange Functionals <=

    0.0800   Slater exchange
    0.7200         Becke 88

   => Exact (HF) Exchange <=

    0.2000               HF 

   => Correlation Functionals <=

    0.1900   Vosko, Wilk & Nusair (VWN5_RPA)
    0.8100   Lee, Yang & Parr

   => Molecular Quadrature <=

    Radial Scheme          =       TREUTLER
    Pruning Scheme         =           NONE
    Nuclear Scheme         =       TREUTLER

    BS radius alpha        =              1
    Pruning alpha          =              1
    Radial Points          =             75
    Spherical Points       =            302
    Total Points           =          65714
    Total Blocks           =            600
    Max Points             =            256
    Max Functions          =            150
    Weights Tolerance      =       1.00E-15


  -Total Gradient:
     Atom            X                  Y                   Z
    ------   -----------------  -----------------  -----------------
       1        0.000000000000     0.000000000000     0.755677842323
       2       -0.000000000000     0.683559278042    -0.377818856688
       3        0.000000000000    -0.683559278042    -0.377818856688


*** tstop() called on c2-3.compute.lan at Fri Jan 29 10:53:13 2021
Module time:
	user time   =       7.30 seconds =       0.12 minutes
	system time =       0.12 seconds =       0.00 minutes
	total time  =          8 seconds =       0.13 minutes
Total time:
	user time   =      30.32 seconds =       0.51 minutes
	system time =       0.53 seconds =       0.01 minutes
	total time  =         31 seconds =       0.52 minutes

			-----------------------------------------
			 OPTKING 2.0: for geometry optimizations 
			  - R.A. King,  Bethel University        
			-----------------------------------------

	Internal coordinates to be generated automatically.
	Detected frag 1 with atoms:  1 2 3
	---Fragment 1 Bond Connectivity---
	 1 : 2 3
	 2 : 1 3
	 3 : 1 2

	---Fragment 1 Geometry and Gradient---
	 S           0.0000000000        0.0000000000       -0.9448630627
	 S           0.0000000000       -2.4548262463        0.4724315314
	 S           0.0000000000        2.4548262463        0.4724315314
	             0.0000000000        0.0000000000        0.7556778423
	            -0.0000000000        0.6835592780       -0.3778188567
	             0.0000000000       -0.6835592780       -0.3778188567

	Previous optimization step data not found.  Starting new optimization.

	---Fragment 1 Intrafragment Coordinates---
	 - Coordinate -           - BOHR/RAD -       - ANG/DEG -
	 R(1,2)           =         2.834589	       1.500000
	 R(1,3)           =         2.834589	       1.500000
	 R(2,3)           =         4.909652	       2.598076
	 B(1,2,3)         =         0.523599	      30.000000
	 B(1,3,2)         =         0.523599	      30.000000
	 B(2,1,3)         =         2.094395	     120.000000

	Current energy   :     -1194.0965778937

	Generating empirical Hessian (Schlegel '84) for each fragment.
	Taking RFO optimization step.
	Going to follow RFO solution 1.
	Using RFO vector 1.
	Norm of target step-size    0.33048
	Projected energy change by RFO approximation:        -0.2472290984

	Back-transformation to cartesian coordinates...
	Successfully converged to displaced geometry.

	--- Internal Coordinate Step in ANG or DEG, aJ/ANG or AJ/DEG ---
	 ---------------------------------------------------------------------------
	   Coordinate                Previous        Force       Change         New 
	   ----------                --------       ------       ------       ------
	    1 R(1,2)          =      1.500000     3.847399     0.093676     1.593676
	    2 R(1,3)          =      1.500000     3.847399     0.093676     1.593676
	    3 R(2,3)          =      2.598076     2.986269     0.104604     2.702680
	    4 B(1,2,3)        =     30.000000     0.011983     2.011800    32.011800
	    5 B(1,3,2)        =     30.000000     0.011983     2.011800    32.011800
	    6 B(2,1,3)        =    120.000000    -0.023965    -4.023599   115.976401
	 ---------------------------------------------------------------------------
	Successfully symmetrized geometry.

  ==> Convergence Check <==

  Measures of convergence in internal coordinates in au.
  Criteria marked as inactive (o), active & met (*), and active & unmet ( ).
  --------------------------------------------------------------------------------------------- ~
   Step     Total Energy     Delta E     MAX Force     RMS Force      MAX Disp      RMS Disp    ~
  --------------------------------------------------------------------------------------------- ~
    Convergence Criteria    1.00e-06 *    3.00e-04 *             o    1.20e-03 *             o  ~
  --------------------------------------------------------------------------------------------- ~
      1   -1194.09657789   -1.19e+03      4.67e-01      3.46e-01 o    1.98e-01      1.35e-01 o  ~
  ---------------------------------------------------------------------------------------------

	Writing optimization data to binary file.
	Structure for next step:
	Cartesian Geometry (in Angstrom)
	    S     0.0000000000   0.0000000000  -0.5631987256
	    S     0.0000000000  -1.3513402017   0.2815993628
	    S     0.0000000000   1.3513402017   0.2815993628
			--------------------------
			 OPTKING Finished Execution 
			--------------------------

    Structure for next step:
    Molecular point group: c2v
    Full point group: C2v

    Geometry (in Angstrom), charge = -2, multiplicity = 1:

    S       
    S             1          R1
    S             1          R2      2          A1

    A1        =  115.9764007754
    R1        =    1.5936763068
    R2        =    1.5936763068

gradient() will perform analytic gradient computation.

*** tstart() called on c2-3.compute.lan
*** at Fri Jan 29 10:53:13 2021

   => Loading Basis Set <=

    Name: AUG-CC-PVTZ
    Role: ORBITAL
    Keyword: BASIS
    atoms 1-3 entry S          line   906 file /apps/gb/PSI4/1.4.0/share/psi4/basis/aug-cc-pvtz.gbs 


         ---------------------------------------------------------
                                   SCF
               by Justin Turney, Rob Parrish, Andy Simmonett
                          and Daniel G. A. Smith
                              UKS Reference
                        1 Threads,   9536 MiB Core
         ---------------------------------------------------------

  ==> Geometry <==

    Molecular point group: c2v
    Full point group: C2v

    Geometry (in Angstrom), charge = -2, multiplicity = 1:

       Center              X                  Y                   Z               Mass       
    ------------   -----------------  -----------------  -----------------  -----------------
         S            0.000000000000     0.000000000000    -0.563198727765    31.972071174400
         S            0.000000000000    -1.351340207032     0.281599363883    31.972071174400
         S            0.000000000000     1.351340207032     0.281599363883    31.972071174400

  Running in c2v symmetry.

  Rotational constants: A =      1.10818  B =      0.14437  C =      0.12773 [cm^-1]
  Rotational constants: A =  33222.46396  B =   4327.99784  C =   3829.16069 [MHz]
  Nuclear repulsion =  220.132712700739233

  Charge       = -2
  Multiplicity = 1
  Electrons    = 50
  Nalpha       = 25
  Nbeta        = 25

  ==> Algorithm <==

  SCF Algorithm Type is DF.
  DIIS enabled.
  MOM disabled.
  Fractional occupation disabled.
  Guess Type is READ.
  Energy threshold   = 1.00e-08
  Density threshold  = 1.00e-08
  Integral threshold = 0.00e+00

  ==> Primary Basis <==

  Basis Set: AUG-CC-PVTZ
    Blend: AUG-CC-PVTZ
    Number of shells: 48
    Number of basis function: 150
    Number of Cartesian functions: 177
    Spherical Harmonics?: true
    Max angular momentum: 3

  ==> DFT Potential <==

   => Composite Functional: B3LYP <= 

    B3LYP Hyb-GGA Exchange-Correlation Functional

    P. J. Stephens, F. J. Devlin, C. F. Chabalowski, and M. J. Frisch, J. Phys. Chem. 98, 11623 (1994)

    Deriv               =              1
    GGA                 =           TRUE
    Meta                =          FALSE

    Exchange Hybrid     =           TRUE
    MP2 Hybrid          =          FALSE

   => Exchange Functionals <=

    0.0800   Slater exchange
    0.7200         Becke 88

   => Exact (HF) Exchange <=

    0.2000               HF 

   => Correlation Functionals <=

    0.1900   Vosko, Wilk & Nusair (VWN5_RPA)
    0.8100   Lee, Yang & Parr

   => Molecular Quadrature <=

    Radial Scheme          =       TREUTLER
    Pruning Scheme         =           NONE
    Nuclear Scheme         =       TREUTLER

    BS radius alpha        =              1
    Pruning alpha          =              1
    Radial Points          =             75
    Spherical Points       =            302
    Total Points           =          65754
    Total Blocks           =            599
    Max Points             =            256
    Max Functions          =            150
    Weights Tolerance      =       1.00E-15

   => Loading Basis Set <=

    Name: (AUG-CC-PVTZ AUX)
    Role: JKFIT
    Keyword: DF_BASIS_SCF
    atoms 1-3 entry S          line   730 file /apps/gb/PSI4/1.4.0/share/psi4/basis/aug-cc-pvtz-jkfit.gbs 

   => Loading Basis Set <=

    Name: AUG-CC-PVTZ
    Role: ORBITAL
    Keyword: BASIS
    atoms 1-3 entry S          line   906 file /apps/gb/PSI4/1.4.0/share/psi4/basis/aug-cc-pvtz.gbs 

  Reading orbitals from file 180, no projection.

  ==> Pre-Iterations <==

   -------------------------------------------------------
    Irrep   Nso     Nmo     Nalpha   Nbeta   Ndocc  Nsocc
   -------------------------------------------------------
     A1        54      54       0       0       0       0
     A2        22      22       0       0       0       0
     B1        29      29       0       0       0       0
     B2        45      45       0       0       0       0
   -------------------------------------------------------
    Total     150     150      25      25      25       0
   -------------------------------------------------------

  ==> Integral Setup <==

  DFHelper Memory: AOs need 0.080 GiB; user supplied 6.720 GiB. Using in-core AOs.

  ==> MemDFJK: Density-Fitted J/K Matrices <==

    J tasked:                   Yes
    K tasked:                   Yes
    wK tasked:                   No
    OpenMP threads:               1
    Memory [MiB]:              6881
    Algorithm:                 Core
    Schwarz Cutoff:           1E-12
    Mask sparsity (%):       0.0000
    Fitting Condition:        1E-10

   => Auxiliary Basis Set <=

  Basis Set: (AUG-CC-PVTZ AUX)
    Blend: AUG-CC-PVTZ-JKFIT
    Number of shells: 126
    Number of basis function: 438
    Number of Cartesian functions: 540
    Spherical Harmonics?: true
    Max angular momentum: 4

  Cached 100.0% of DFT collocation blocks in 0.265 [GiB].

  Minimum eigenvalue in the overlap matrix is 7.6219050637E-05.
  Using Symmetric Orthogonalization.

  SCF Guess: Orbitals guess was supplied from a previous computation.

  ==> Iterations <==

                           Total Energy        Delta E     RMS |[F,P]|

   @DF-UKS iter   0: -1194.25555510122035   -1.19426e+03   1.01842e-02 
   @DF-UKS iter   1: -1194.31305703654948   -5.75019e-02   1.04950e-03 DIIS
   @DF-UKS iter   2: -1194.29247549489310    2.05815e-02   2.36601e-03 DIIS
   @DF-UKS iter   3: -1194.31787076590354   -2.53953e-02   1.78596e-04 DIIS
   @DF-UKS iter   4: -1194.31794882835879   -7.80625e-05   7.79421e-05 DIIS
   @DF-UKS iter   5: -1194.31797712634216   -2.82980e-05   1.80748e-05 DIIS
   @DF-UKS iter   6: -1194.31797837732165   -1.25098e-06   7.54290e-06 DIIS
   @DF-UKS iter   7: -1194.31797867213754   -2.94816e-07   1.61130e-06 DIIS
   @DF-UKS iter   8: -1194.31797869453544   -2.23979e-08   2.53494e-07 DIIS
   @DF-UKS iter   9: -1194.31797869694151   -2.40607e-09   1.00281e-07 DIIS
   @DF-UKS iter  10: -1194.31797869731167   -3.70164e-10   3.32166e-08 DIIS
   @DF-UKS iter  11: -1194.31797869733100   -1.93268e-11   6.65958e-09 DIIS
  Energy and wave function converged.


  ==> Post-Iterations <==

   @Spin Contamination Metric:  -8.881784197E-14
   @S^2 Expected:                0.000000000E+00
   @S^2 Observed:               -8.881784197E-14
   @S   Expected:                0.000000000E+00
   @S   Observed:                0.000000000E+00

    Orbital Energies [Eh]
    ---------------------

    Alpha Occupied:                                                       

       1A1   -88.541990     1B2   -88.495848     2A1   -88.495847  
       3A1    -7.615320     2B2    -7.564477     4A1    -7.564442  
       3B2    -5.579357     5A1    -5.572730     1B1    -5.570048  
       6A1    -5.528120     4B2    -5.527982     1A2    -5.521481  
       2B1    -5.521478     5B2    -5.520443     7A1    -5.520442  
       8A1    -0.615221     6B2    -0.424297     9A1    -0.163304  
       3B1    -0.086568    10A1    -0.081641     7B2    -0.058412  
       2A2     0.074826     8B2     0.103601    11A1     0.121387  
       4B1     0.212804  

    Alpha Virtual:                                                        

       9B2     0.230041    12A1     0.234612    13A1     0.263647  
       3A2     0.290249     5B1     0.291340    10B2     0.293508  
      14A1     0.294158     6B1     0.309353    11B2     0.314593  
      15A1     0.338063    16A1     0.385924    12B2     0.401020  
      17A1     0.422973     7B1     0.451496    13B2     0.465434  
      18A1     0.478106     4A2     0.486246    14B2     0.500425  
      19A1     0.518380    15B2     0.540841     8B1     0.544630  
       5A2     0.553624    20A1     0.559516     9B1     0.586621  
      16B2     0.598384    21A1     0.622142     6A2     0.643232  
      22A1     0.663842    17B2     0.675226    10B1     0.693646  
      23A1     0.724475     7A2     0.758228    24A1     0.776777  
      18B2     0.778754    19B2     0.791821    11B1     0.794693  
      25A1     0.795263    26A1     0.815099    12B1     0.825944  
      20B2     0.846456     8A2     0.847137    27A1     0.889414  
      21B2     0.903073    13B1     0.910996     9A2     0.918878  
      28A1     0.927326    29A1     0.985591    22B2     1.009724  
      23B2     1.028754    14B1     1.039178    15B1     1.078681  
      30A1     1.100115    10A2     1.108877    11A2     1.140795  
      24B2     1.146531    16B1     1.149020    31A1     1.160375  
      32A1     1.222579    25B2     1.257026    33A1     1.288140  
      26B2     1.335775    17B1     1.342182    12A2     1.363825  
      27B2     1.379820    34A1     1.380546    13A2     1.389075  
      28B2     1.463857    18B1     1.504151    35A1     1.529763  
      19B1     1.543883    29B2     1.567531    36A1     1.585729  
      14A2     1.610218    30B2     1.670483    37A1     1.745792  
      31B2     1.789635    38A1     1.791571    20B1     1.994211  
      15A2     2.014855    39A1     2.044792    21B1     2.069896  
      32B2     2.085920    40A1     2.100017    16A2     2.154311  
      22B1     2.185843    41A1     2.200048    17A2     2.214544  
      42A1     2.229698    33B2     2.230390    43A1     2.243530  
      34B2     2.273552    44A1     2.302757    23B1     2.319561  
      24B1     2.346307    35B2     2.347441    36B2     2.374239  
      45A1     2.430710    18A2     2.433859    37B2     2.466746  
      25B1     2.472410    19A2     2.495806    46A1     2.538181  
      38B2     2.595836    26B1     2.613108    39B2     2.614528  
      20A2     2.641332    47A1     2.735096    27B1     2.795556  
      48A1     2.816605    21A2     2.850950    28B1     2.978453  
      40B2     3.008283    41B2     3.026907    49A1     3.093777  
      22A2     3.153079    50A1     3.212669    29B1     3.234073  
      42B2     3.387852    51A1     3.436816    43B2     3.618857  
      52A1     3.704649    44B2     3.831431    53A1     6.464298  
      45B2     6.878941    54A1     7.857218  

    Beta Occupied:                                                        

       1A1   -88.541990     1B2   -88.495848     2A1   -88.495847  
       3A1    -7.615320     2B2    -7.564477     4A1    -7.564442  
       3B2    -5.579357     5A1    -5.572730     1B1    -5.570048  
       6A1    -5.528120     4B2    -5.527982     1A2    -5.521481  
       2B1    -5.521478     5B2    -5.520443     7A1    -5.520442  
       8A1    -0.615221     6B2    -0.424297     9A1    -0.163304  
       3B1    -0.086568    10A1    -0.081641     7B2    -0.058412  
       2A2     0.074826     8B2     0.103601    11A1     0.121387  
       4B1     0.212804  

    Beta Virtual:                                                         

       9B2     0.230041    12A1     0.234612    13A1     0.263647  
       3A2     0.290249     5B1     0.291340    10B2     0.293508  
      14A1     0.294158     6B1     0.309353    11B2     0.314593  
      15A1     0.338063    16A1     0.385924    12B2     0.401020  
      17A1     0.422973     7B1     0.451496    13B2     0.465434  
      18A1     0.478106     4A2     0.486246    14B2     0.500425  
      19A1     0.518380    15B2     0.540841     8B1     0.544630  
       5A2     0.553624    20A1     0.559516     9B1     0.586621  
      16B2     0.598384    21A1     0.622142     6A2     0.643232  
      22A1     0.663842    17B2     0.675226    10B1     0.693646  
      23A1     0.724475     7A2     0.758228    24A1     0.776777  
      18B2     0.778754    19B2     0.791821    11B1     0.794693  
      25A1     0.795263    26A1     0.815099    12B1     0.825944  
      20B2     0.846456     8A2     0.847137    27A1     0.889414  
      21B2     0.903073    13B1     0.910996     9A2     0.918878  
      28A1     0.927326    29A1     0.985591    22B2     1.009724  
      23B2     1.028754    14B1     1.039178    15B1     1.078681  
      30A1     1.100115    10A2     1.108877    11A2     1.140795  
      24B2     1.146531    16B1     1.149020    31A1     1.160375  
      32A1     1.222579    25B2     1.257026    33A1     1.288140  
      26B2     1.335775    17B1     1.342182    12A2     1.363825  
      27B2     1.379820    34A1     1.380546    13A2     1.389075  
      28B2     1.463857    18B1     1.504151    35A1     1.529763  
      19B1     1.543883    29B2     1.567531    36A1     1.585729  
      14A2     1.610218    30B2     1.670483    37A1     1.745792  
      31B2     1.789635    38A1     1.791571    20B1     1.994211  
      15A2     2.014855    39A1     2.044792    21B1     2.069896  
      32B2     2.085920    40A1     2.100017    16A2     2.154311  
      22B1     2.185843    41A1     2.200048    17A2     2.214544  
      42A1     2.229698    33B2     2.230390    43A1     2.243530  
      34B2     2.273552    44A1     2.302757    23B1     2.319561  
      24B1     2.346307    35B2     2.347441    36B2     2.374239  
      45A1     2.430710    18A2     2.433859    37B2     2.466746  
      25B1     2.472410    19A2     2.495806    46A1     2.538181  
      38B2     2.595836    26B1     2.613108    39B2     2.614528  
      20A2     2.641332    47A1     2.735096    27B1     2.795556  
      48A1     2.816605    21A2     2.850950    28B1     2.978453  
      40B2     3.008283    41B2     3.026907    49A1     3.093777  
      22A2     3.153079    50A1     3.212669    29B1     3.234073  
      42B2     3.387852    51A1     3.436816    43B2     3.618857  
      52A1     3.704649    44B2     3.831431    53A1     6.464298  
      45B2     6.878941    54A1     7.857218  

    Final Occupation by Irrep:
             A1    A2    B1    B2 
    DOCC [    11,    2,    4,    8 ]
    SOCC [     0,    0,    0,    0 ]

  @DF-UKS Final Energy: -1194.31797869733100

   => Energetics <=

    Nuclear Repulsion Energy =            220.1327127007392335
    One-Electron Energy =               -2106.2149936315436207
    Two-Electron Energy =                 754.4643089017808961
    DFT Exchange-Correlation Energy =     -62.7000066683077648
    Empirical Dispersion Energy =           0.0000000000000000
    VV10 Nonlocal Energy =                  0.0000000000000000
    Total Energy =                      -1194.3179786973314549

  UHF NO Occupations:
  HONO-2 :    9 A1 2.0000000
  HONO-1 :   10 A1 2.0000000
  HONO-0 :   11 A1 2.0000000
  LUNO+0 :   12 A1 0.0000000
  LUNO+1 :    5 B1 0.0000000
  LUNO+2 :   13 A1 0.0000000
  LUNO+3 :    9 B2 0.0000000


Computation Completed


Properties will be evaluated at   0.000000,   0.000000,   0.000000 [a0]

Properties computed using the SCF density matrix

  Nuclear Dipole Moment: [e a0]
     X:     0.0000      Y:     0.0000      Z:     0.0000

  Electronic Dipole Moment: [e a0]
     X:     0.0000      Y:     0.0000      Z:    -1.5658

  Dipole Moment: [e a0]
     X:     0.0000      Y:     0.0000      Z:    -1.5658     Total:     1.5658

  Dipole Moment: [D]
     X:     0.0000      Y:     0.0000      Z:    -3.9797     Total:     3.9797


*** tstop() called on c2-3.compute.lan at Fri Jan 29 10:53:27 2021
Module time:
	user time   =      13.89 seconds =       0.23 minutes
	system time =       0.19 seconds =       0.00 minutes
	total time  =         14 seconds =       0.23 minutes
Total time:
	user time   =      44.22 seconds =       0.74 minutes
	system time =       0.73 seconds =       0.01 minutes
	total time  =         45 seconds =       0.75 minutes

*** tstart() called on c2-3.compute.lan
*** at Fri Jan 29 10:53:27 2021


         ------------------------------------------------------------
                                   SCF GRAD                          
                          Rob Parrish, Justin Turney,                
                       Andy Simmonett, and Alex Sokolov              
         ------------------------------------------------------------

  ==> Geometry <==

    Molecular point group: c2v
    Full point group: C2v

    Geometry (in Angstrom), charge = -2, multiplicity = 1:

       Center              X                  Y                   Z               Mass       
    ------------   -----------------  -----------------  -----------------  -----------------
         S            0.000000000000     0.000000000000    -0.563198727765    31.972071174400
         S            0.000000000000    -1.351340207032     0.281599363883    31.972071174400
         S            0.000000000000     1.351340207032     0.281599363883    31.972071174400

  Nuclear repulsion =  220.132712700739233

  ==> Basis Set <==

  Basis Set: AUG-CC-PVTZ
    Blend: AUG-CC-PVTZ
    Number of shells: 48
    Number of basis function: 150
    Number of Cartesian functions: 177
    Spherical Harmonics?: true
    Max angular momentum: 3

  ==> DFJKGrad: Density-Fitted SCF Gradients <==

    Gradient:                    1
    J tasked:                  Yes
    K tasked:                  Yes
    wK tasked:                  No
    OpenMP threads:              1
    Integrals threads:           1
    Memory [MiB]:             7152
    Schwarz Cutoff:          0E+00
    Fitting Condition:       1E-10

   => Auxiliary Basis Set <=

  Basis Set: (AUG-CC-PVTZ AUX)
    Blend: AUG-CC-PVTZ-JKFIT
    Number of shells: 126
    Number of basis function: 438
    Number of Cartesian functions: 540
    Spherical Harmonics?: true
    Max angular momentum: 4

  ==> DFT Potential <==

   => Composite Functional: B3LYP <= 

    B3LYP Hyb-GGA Exchange-Correlation Functional

    P. J. Stephens, F. J. Devlin, C. F. Chabalowski, and M. J. Frisch, J. Phys. Chem. 98, 11623 (1994)

    Deriv               =              1
    GGA                 =           TRUE
    Meta                =          FALSE

    Exchange Hybrid     =           TRUE
    MP2 Hybrid          =          FALSE

   => Exchange Functionals <=

    0.0800   Slater exchange
    0.7200         Becke 88

   => Exact (HF) Exchange <=

    0.2000               HF 

   => Correlation Functionals <=

    0.1900   Vosko, Wilk & Nusair (VWN5_RPA)
    0.8100   Lee, Yang & Parr

   => Molecular Quadrature <=

    Radial Scheme          =       TREUTLER
    Pruning Scheme         =           NONE
    Nuclear Scheme         =       TREUTLER

    BS radius alpha        =              1
    Pruning alpha          =              1
    Radial Points          =             75
    Spherical Points       =            302
    Total Points           =          65754
    Total Blocks           =            599
    Max Points             =            256
    Max Functions          =            150
    Weights Tolerance      =       1.00E-15


  -Total Gradient:
     Atom            X                  Y                   Z
    ------   -----------------  -----------------  -----------------
       1        0.000000000000     0.000000000000     0.513302033849
       2       -0.000000000000     0.434446667389    -0.256642394854
       3        0.000000000000    -0.434446667389    -0.256642394854


*** tstop() called on c2-3.compute.lan at Fri Jan 29 10:53:34 2021
Module time:
	user time   =       6.86 seconds =       0.11 minutes
	system time =       0.07 seconds =       0.00 minutes
	total time  =          7 seconds =       0.12 minutes
Total time:
	user time   =      51.09 seconds =       0.85 minutes
	system time =       0.80 seconds =       0.01 minutes
	total time  =         52 seconds =       0.87 minutes

			-----------------------------------------
			 OPTKING 2.0: for geometry optimizations 
			  - R.A. King,  Bethel University        
			-----------------------------------------

	Previous internal coordinate definitions found.
	---Fragment 1 Geometry and Gradient---
	 S           0.0000000000        0.0000000000       -1.0642913497
	 S           0.0000000000       -2.5536628936        0.5321456748
	 S           0.0000000000        2.5536628936        0.5321456748
	             0.0000000000        0.0000000000        0.5133020338
	            -0.0000000000        0.4344466674       -0.2566423949
	             0.0000000000       -0.4344466674       -0.2566423949

	---Fragment 1 Intrafragment Coordinates---
	 - Coordinate -           - BOHR/RAD -       - ANG/DEG -
	 R(1,2)           =         3.011612	       1.593676
	 R(1,3)           =         3.011612	       1.593676
	 R(2,3)           =         5.107326	       2.702680
	 B(1,2,3)         =         0.558711	      32.011800
	 B(1,3,2)         =         0.558711	      32.011800
	 B(2,1,3)         =         2.024170	     115.976401

	Current energy   :     -1194.3179786973

	Energy change for the previous step:
		Projected    :        -0.2472290984
		Actual       :        -0.2214008036
	Energy ratio indicates good step: Trust radius increased to 1.000e+00.


	Performing BFGS update.
	Previous computed or guess Hessian on step 1.
	Steps to be used in Hessian update: 1
	Taking RFO optimization step.
	Going to follow RFO solution 1.
	Using RFO vector 1.
	Norm of target step-size    0.48775
	Projected energy change by RFO approximation:        -0.2421159198

	Back-transformation to cartesian coordinates...
	Successfully converged to displaced geometry.

	--- Internal Coordinate Step in ANG or DEG, aJ/ANG or AJ/DEG ---
	 ---------------------------------------------------------------------------
	   Coordinate                Previous        Force       Change         New 
	   ----------                --------       ------       ------       ------
	    1 R(1,2)          =      1.593676     2.642733     0.152005     1.745681
	    2 R(1,3)          =      1.593676     2.642733     0.152005     1.745681
	    3 R(2,3)          =      2.702680     1.784492     0.079104     2.781784
	    4 B(1,2,3)        =     32.011800     0.007802     5.166219    37.178019
	    5 B(1,3,2)        =     32.011800     0.007802     5.166219    37.178019
	    6 B(2,1,3)        =    115.976401    -0.015604   -10.332439   105.643962
	 ---------------------------------------------------------------------------
	Successfully symmetrized geometry.

  ==> Convergence Check <==

  Measures of convergence in internal coordinates in au.
  Criteria marked as inactive (o), active & met (*), and active & unmet ( ).
  ---------------------------------------------------------------------------------------------
   Step     Total Energy     Delta E     MAX Force     RMS Force      MAX Disp      RMS Disp   
  ---------------------------------------------------------------------------------------------
    Convergence Criteria    1.00e-06 *    3.00e-04 *             o    1.20e-03 *             o
  ---------------------------------------------------------------------------------------------
      2   -1194.31797870   -2.21e-01      3.21e-01      2.29e-01 o    2.87e-01      1.98e-01 o  ~
  ---------------------------------------------------------------------------------------------

	Writing optimization data to binary file.
	Structure for next step:
	Cartesian Geometry (in Angstrom)
	    S     0.0000000000   0.0000000000  -0.7032692570
	    S     0.0000000000  -1.3908922450   0.3516346285
	    S     0.0000000000   1.3908922450   0.3516346285
			--------------------------
			 OPTKING Finished Execution 
			--------------------------

    Structure for next step:
    Molecular point group: c2v
    Full point group: C2v

    Geometry (in Angstrom), charge = -2, multiplicity = 1:

    S       
    S             1          R1
    S             1          R2      2          A1

    A1        =  105.6439620072
    R1        =    1.7456813767
    R2        =    1.7456813767

gradient() will perform analytic gradient computation.

*** tstart() called on c2-3.compute.lan
*** at Fri Jan 29 10:53:34 2021

   => Loading Basis Set <=

    Name: AUG-CC-PVTZ
    Role: ORBITAL
    Keyword: BASIS
    atoms 1-3 entry S          line   906 file /apps/gb/PSI4/1.4.0/share/psi4/basis/aug-cc-pvtz.gbs 


         ---------------------------------------------------------
                                   SCF
               by Justin Turney, Rob Parrish, Andy Simmonett
                          and Daniel G. A. Smith
                              UKS Reference
                        1 Threads,   9536 MiB Core
         ---------------------------------------------------------

  ==> Geometry <==

    Molecular point group: c2v
    Full point group: C2v

    Geometry (in Angstrom), charge = -2, multiplicity = 1:

       Center              X                  Y                   Z               Mass       
    ------------   -----------------  -----------------  -----------------  -----------------
         S            0.000000000000     0.000000000000    -0.703269259801    31.972071174400
         S            0.000000000000    -1.390892250498     0.351634629901    31.972071174400
         S            0.000000000000     1.390892250498     0.351634629901    31.972071174400

  Running in c2v symmetry.

  Rotational constants: A =      0.71071  B =      0.13627  C =      0.11435 [cm^-1]
  Rotational constants: A =  21306.48948  B =   4085.35177  C =   3428.05012 [MHz]
  Nuclear repulsion =  203.903873080795961

  Charge       = -2
  Multiplicity = 1
  Electrons    = 50
  Nalpha       = 25
  Nbeta        = 25

  ==> Algorithm <==

  SCF Algorithm Type is DF.
  DIIS enabled.
  MOM disabled.
  Fractional occupation disabled.
  Guess Type is READ.
  Energy threshold   = 1.00e-08
  Density threshold  = 1.00e-08
  Integral threshold = 0.00e+00

  ==> Primary Basis <==

  Basis Set: AUG-CC-PVTZ
    Blend: AUG-CC-PVTZ
    Number of shells: 48
    Number of basis function: 150
    Number of Cartesian functions: 177
    Spherical Harmonics?: true
    Max angular momentum: 3

  ==> DFT Potential <==

   => Composite Functional: B3LYP <= 

    B3LYP Hyb-GGA Exchange-Correlation Functional

    P. J. Stephens, F. J. Devlin, C. F. Chabalowski, and M. J. Frisch, J. Phys. Chem. 98, 11623 (1994)

    Deriv               =              1
    GGA                 =           TRUE
    Meta                =          FALSE

    Exchange Hybrid     =           TRUE
    MP2 Hybrid          =          FALSE

   => Exchange Functionals <=

    0.0800   Slater exchange
    0.7200         Becke 88

   => Exact (HF) Exchange <=

    0.2000               HF 

   => Correlation Functionals <=

    0.1900   Vosko, Wilk & Nusair (VWN5_RPA)
    0.8100   Lee, Yang & Parr

   => Molecular Quadrature <=

    Radial Scheme          =       TREUTLER
    Pruning Scheme         =           NONE
    Nuclear Scheme         =       TREUTLER

    BS radius alpha        =              1
    Pruning alpha          =              1
    Radial Points          =             75
    Spherical Points       =            302
    Total Points           =          65834
    Total Blocks           =            597
    Max Points             =            255
    Max Functions          =            150
    Weights Tolerance      =       1.00E-15

   => Loading Basis Set <=

    Name: (AUG-CC-PVTZ AUX)
    Role: JKFIT
    Keyword: DF_BASIS_SCF
    atoms 1-3 entry S          line   730 file /apps/gb/PSI4/1.4.0/share/psi4/basis/aug-cc-pvtz-jkfit.gbs 

   => Loading Basis Set <=

    Name: AUG-CC-PVTZ
    Role: ORBITAL
    Keyword: BASIS
    atoms 1-3 entry S          line   906 file /apps/gb/PSI4/1.4.0/share/psi4/basis/aug-cc-pvtz.gbs 

  Reading orbitals from file 180, no projection.

  ==> Pre-Iterations <==

   -------------------------------------------------------
    Irrep   Nso     Nmo     Nalpha   Nbeta   Ndocc  Nsocc
   -------------------------------------------------------
     A1        54      54       0       0       0       0
     A2        22      22       0       0       0       0
     B1        29      29       0       0       0       0
     B2        45      45       0       0       0       0
   -------------------------------------------------------
    Total     150     150      25      25      25       0
   -------------------------------------------------------

  ==> Integral Setup <==

  DFHelper Memory: AOs need 0.080 GiB; user supplied 6.720 GiB. Using in-core AOs.

  ==> MemDFJK: Density-Fitted J/K Matrices <==

    J tasked:                   Yes
    K tasked:                   Yes
    wK tasked:                   No
    OpenMP threads:               1
    Memory [MiB]:              6881
    Algorithm:                 Core
    Schwarz Cutoff:           1E-12
    Mask sparsity (%):       0.0000
    Fitting Condition:        1E-10

   => Auxiliary Basis Set <=

  Basis Set: (AUG-CC-PVTZ AUX)
    Blend: AUG-CC-PVTZ-JKFIT
    Number of shells: 126
    Number of basis function: 438
    Number of Cartesian functions: 540
    Spherical Harmonics?: true
    Max angular momentum: 4

  Cached 100.0% of DFT collocation blocks in 0.265 [GiB].

  Minimum eigenvalue in the overlap matrix is 1.1751759123E-04.
  Using Symmetric Orthogonalization.

  SCF Guess: Orbitals guess was supplied from a previous computation.

  ==> Iterations <==

                           Total Energy        Delta E     RMS |[F,P]|

   @DF-UKS iter   0: -1194.40774478537946   -1.19441e+03   1.30115e-02 
   @DF-UKS iter   1: -1194.50579414065442   -9.80494e-02   1.50187e-03 DIIS
   @DF-UKS iter   2: -1194.48238617927655    2.34080e-02   2.77089e-03 DIIS
   @DF-UKS iter   3: -1194.51443317635267   -3.20470e-02   3.80202e-04 DIIS
   @DF-UKS iter   4: -1194.51503520031656   -6.02024e-04   1.05135e-04 DIIS
   @DF-UKS iter   5: -1194.51507540502394   -4.02047e-05   4.50033e-05 DIIS
   @DF-UKS iter   6: -1194.51508499028978   -9.58527e-06   1.05523e-05 DIIS
   @DF-UKS iter   7: -1194.51508564454025   -6.54250e-07   3.31066e-06 DIIS
   @DF-UKS iter   8: -1194.51508573836281   -9.38226e-08   4.38188e-07 DIIS
   @DF-UKS iter   9: -1194.51508574145100   -3.08819e-09   1.11852e-07 DIIS
   @DF-UKS iter  10: -1194.51508574167974   -2.28738e-10   2.95319e-08 DIIS
   @DF-UKS iter  11: -1194.51508574170202   -2.22826e-11   1.20816e-08 DIIS
   @DF-UKS iter  12: -1194.51508574170407   -2.04636e-12   2.55191e-09 DIIS
  Energy and wave function converged.


  ==> Post-Iterations <==

   @Spin Contamination Metric:   7.105427358E-15
   @S^2 Expected:                0.000000000E+00
   @S^2 Observed:                7.105427358E-15
   @S   Expected:                0.000000000E+00
   @S   Observed:                0.000000000E+00

    Orbital Energies [Eh]
    ---------------------

    Alpha Occupied:                                                       

       1A1   -88.546225     1B2   -88.492736     2A1   -88.492731  
       3A1    -7.605023     2B2    -7.551556     4A1    -7.551547  
       3B2    -5.569111     5A1    -5.564782     1B1    -5.560460  
       6A1    -5.515746     4B2    -5.515736     5B2    -5.509060  
       7A1    -5.509059     1A2    -5.508974     2B1    -5.508973  
       8A1    -0.543669     6B2    -0.363669     9A1    -0.169380  
      10A1    -0.041857     7B2    -0.038403     3B1    -0.035164  
       2A2     0.103685    11A1     0.111736     8B2     0.133431  
       4B1     0.203071  

    Alpha Virtual:                                                        

       9B2     0.234117    12A1     0.236227    13A1     0.267223  
       5B1     0.294906    10B2     0.297336    14A1     0.298553  
       3A2     0.299589     6B1     0.310169    11B2     0.314242  
      15A1     0.348191    16A1     0.382647    12B2     0.395423  
      17A1     0.425947    13B2     0.449288     7B1     0.469203  
       4A2     0.493017    18A1     0.494588    14B2     0.511307  
      19A1     0.531798     8B1     0.544375    20A1     0.547272  
      15B2     0.548268     5A2     0.572386     9B1     0.590128  
      16B2     0.594272    21A1     0.633747     6A2     0.637652  
      22A1     0.655031    17B2     0.656497    10B1     0.714066  
      23A1     0.750644     7A2     0.787865    18B2     0.798160  
      24A1     0.799440    25A1     0.808740    11B1     0.812647  
      19B2     0.817725    26A1     0.823094    12B1     0.839531  
       8A2     0.841424    20B2     0.855101    27A1     0.864865  
      13B1     0.908367    21B2     0.925457    28A1     0.927286  
       9A2     0.942856    22B2     0.989057    29A1     0.991270  
      23B2     1.023248    14B1     1.036764    10A2     1.077889  
      30A1     1.081180    15B1     1.089381    16B1     1.119369  
      31A1     1.134752    11A2     1.140914    24B2     1.146714  
      32A1     1.177409    25B2     1.220243    33A1     1.287063  
      17B1     1.325401    26B2     1.338852    27B2     1.348990  
      12A2     1.351879    34A1     1.378861    13A2     1.385439  
      18B1     1.471305    28B2     1.472409    29B2     1.503542  
      19B1     1.509546    35A1     1.512730    14A2     1.559808  
      36A1     1.593025    37A1     1.639493    30B2     1.682182  
      31B2     1.722844    38A1     1.763489    20B1     2.050527  
      15A2     2.066246    39A1     2.088929    32B2     2.127000  
      21B1     2.131081    40A1     2.135959    41A1     2.178222  
      16A2     2.182313    22B1     2.193330    42A1     2.194597  
      33B2     2.232214    43A1     2.251548    34B2     2.260050  
      17A2     2.265178    44A1     2.301139    23B1     2.313785  
      35B2     2.346555    24B1     2.349836    36B2     2.368454  
      18A2     2.439650    45A1     2.440835    37B2     2.481239  
      25B1     2.494314    26B1     2.497437    19A2     2.510949  
      38B2     2.533438    20A2     2.542295    46A1     2.577810  
      39B2     2.610412    47A1     2.657084    21A2     2.733625  
      48A1     2.734709    27B1     2.738240    40B2     2.835158  
      28B1     2.840753    41B2     2.859829    49A1     2.912634  
      22A2     3.082421    29B1     3.103696    42B2     3.186371  
      50A1     3.187375    51A1     3.298896    43B2     3.384871  
      52A1     3.665164    44B2     3.965418    53A1     5.662331  
      45B2     6.279844    54A1     6.750473  

    Beta Occupied:                                                        

       1A1   -88.546225     1B2   -88.492736     2A1   -88.492731  
       3A1    -7.605023     2B2    -7.551556     4A1    -7.551547  
       3B2    -5.569111     5A1    -5.564782     1B1    -5.560460  
       6A1    -5.515746     4B2    -5.515736     5B2    -5.509060  
       7A1    -5.509059     1A2    -5.508974     2B1    -5.508973  
       8A1    -0.543669     6B2    -0.363669     9A1    -0.169380  
      10A1    -0.041857     7B2    -0.038403     3B1    -0.035164  
       2A2     0.103685    11A1     0.111736     8B2     0.133431  
       4B1     0.203071  

    Beta Virtual:                                                         

       9B2     0.234117    12A1     0.236227    13A1     0.267223  
       5B1     0.294906    10B2     0.297336    14A1     0.298553  
       3A2     0.299589     6B1     0.310169    11B2     0.314242  
      15A1     0.348191    16A1     0.382647    12B2     0.395423  
      17A1     0.425947    13B2     0.449288     7B1     0.469203  
       4A2     0.493017    18A1     0.494588    14B2     0.511307  
      19A1     0.531798     8B1     0.544375    20A1     0.547272  
      15B2     0.548268     5A2     0.572386     9B1     0.590128  
      16B2     0.594272    21A1     0.633747     6A2     0.637652  
      22A1     0.655031    17B2     0.656497    10B1     0.714066  
      23A1     0.750644     7A2     0.787865    18B2     0.798160  
      24A1     0.799440    25A1     0.808740    11B1     0.812647  
      19B2     0.817725    26A1     0.823094    12B1     0.839531  
       8A2     0.841424    20B2     0.855101    27A1     0.864865  
      13B1     0.908367    21B2     0.925457    28A1     0.927286  
       9A2     0.942856    22B2     0.989057    29A1     0.991270  
      23B2     1.023248    14B1     1.036764    10A2     1.077889  
      30A1     1.081180    15B1     1.089381    16B1     1.119369  
      31A1     1.134752    11A2     1.140914    24B2     1.146714  
      32A1     1.177409    25B2     1.220243    33A1     1.287063  
      17B1     1.325401    26B2     1.338852    27B2     1.348990  
      12A2     1.351879    34A1     1.378861    13A2     1.385439  
      18B1     1.471305    28B2     1.472409    29B2     1.503542  
      19B1     1.509546    35A1     1.512730    14A2     1.559808  
      36A1     1.593025    37A1     1.639493    30B2     1.682182  
      31B2     1.722844    38A1     1.763489    20B1     2.050527  
      15A2     2.066246    39A1     2.088929    32B2     2.127000  
      21B1     2.131081    40A1     2.135959    41A1     2.178222  
      16A2     2.182313    22B1     2.193330    42A1     2.194597  
      33B2     2.232214    43A1     2.251548    34B2     2.260050  
      17A2     2.265178    44A1     2.301139    23B1     2.313785  
      35B2     2.346555    24B1     2.349836    36B2     2.368454  
      18A2     2.439650    45A1     2.440835    37B2     2.481239  
      25B1     2.494314    26B1     2.497437    19A2     2.510949  
      38B2     2.533438    20A2     2.542295    46A1     2.577810  
      39B2     2.610412    47A1     2.657084    21A2     2.733625  
      48A1     2.734709    27B1     2.738240    40B2     2.835158  
      28B1     2.840753    41B2     2.859829    49A1     2.912634  
      22A2     3.082421    29B1     3.103696    42B2     3.186371  
      50A1     3.187375    51A1     3.298896    43B2     3.384871  
      52A1     3.665164    44B2     3.965418    53A1     5.662331  
      45B2     6.279844    54A1     6.750473  

    Final Occupation by Irrep:
             A1    A2    B1    B2 
    DOCC [    11,    2,    4,    8 ]
    SOCC [     0,    0,    0,    0 ]

  @DF-UKS Final Energy: -1194.51508574170407

   => Energetics <=

    Nuclear Repulsion Energy =            203.9038730807959610
    One-Electron Energy =               -2075.0719905987916718
    Two-Electron Energy =                 739.2177029900702792
    DFT Exchange-Correlation Energy =     -62.5646712137787304
    Empirical Dispersion Energy =           0.0000000000000000
    VV10 Nonlocal Energy =                  0.0000000000000000
    Total Energy =                      -1194.5150857417038424

  UHF NO Occupations:
  HONO-2 :    9 A1 2.0000000
  HONO-1 :   10 A1 2.0000000
  HONO-0 :   11 A1 2.0000000
  LUNO+0 :   12 A1 0.0000000
  LUNO+1 :   13 A1 0.0000000
  LUNO+2 :    9 B2 0.0000000
  LUNO+3 :   14 A1 0.0000000


Computation Completed


Properties will be evaluated at   0.000000,   0.000000,   0.000000 [a0]

Properties computed using the SCF density matrix

  Nuclear Dipole Moment: [e a0]
     X:     0.0000      Y:     0.0000      Z:     0.0000

  Electronic Dipole Moment: [e a0]
     X:     0.0000      Y:     0.0000      Z:    -0.9539

  Dipole Moment: [e a0]
     X:     0.0000      Y:     0.0000      Z:    -0.9539     Total:     0.9539

  Dipole Moment: [D]
     X:     0.0000      Y:     0.0000      Z:    -2.4245     Total:     2.4245


*** tstop() called on c2-3.compute.lan at Fri Jan 29 10:53:49 2021
Module time:
	user time   =      14.44 seconds =       0.24 minutes
	system time =       0.19 seconds =       0.00 minutes
	total time  =         15 seconds =       0.25 minutes
Total time:
	user time   =      65.54 seconds =       1.09 minutes
	system time =       0.99 seconds =       0.02 minutes
	total time  =         67 seconds =       1.12 minutes

*** tstart() called on c2-3.compute.lan
*** at Fri Jan 29 10:53:49 2021


         ------------------------------------------------------------
                                   SCF GRAD                          
                          Rob Parrish, Justin Turney,                
                       Andy Simmonett, and Alex Sokolov              
         ------------------------------------------------------------

  ==> Geometry <==

    Molecular point group: c2v
    Full point group: C2v

    Geometry (in Angstrom), charge = -2, multiplicity = 1:

       Center              X                  Y                   Z               Mass       
    ------------   -----------------  -----------------  -----------------  -----------------
         S            0.000000000000     0.000000000000    -0.703269259801    31.972071174400
         S            0.000000000000    -1.390892250498     0.351634629901    31.972071174400
         S            0.000000000000     1.390892250498     0.351634629901    31.972071174400

  Nuclear repulsion =  203.903873080796018

  ==> Basis Set <==

  Basis Set: AUG-CC-PVTZ
    Blend: AUG-CC-PVTZ
    Number of shells: 48
    Number of basis function: 150
    Number of Cartesian functions: 177
    Spherical Harmonics?: true
    Max angular momentum: 3

  ==> DFJKGrad: Density-Fitted SCF Gradients <==

    Gradient:                    1
    J tasked:                  Yes
    K tasked:                  Yes
    wK tasked:                  No
    OpenMP threads:              1
    Integrals threads:           1
    Memory [MiB]:             7152
    Schwarz Cutoff:          0E+00
    Fitting Condition:       1E-10

   => Auxiliary Basis Set <=

  Basis Set: (AUG-CC-PVTZ AUX)
    Blend: AUG-CC-PVTZ-JKFIT
    Number of shells: 126
    Number of basis function: 438
    Number of Cartesian functions: 540
    Spherical Harmonics?: true
    Max angular momentum: 4

  ==> DFT Potential <==

   => Composite Functional: B3LYP <= 

    B3LYP Hyb-GGA Exchange-Correlation Functional

    P. J. Stephens, F. J. Devlin, C. F. Chabalowski, and M. J. Frisch, J. Phys. Chem. 98, 11623 (1994)

    Deriv               =              1
    GGA                 =           TRUE
    Meta                =          FALSE

    Exchange Hybrid     =           TRUE
    MP2 Hybrid          =          FALSE

   => Exchange Functionals <=

    0.0800   Slater exchange
    0.7200         Becke 88

   => Exact (HF) Exchange <=

    0.2000               HF 

   => Correlation Functionals <=

    0.1900   Vosko, Wilk & Nusair (VWN5_RPA)
    0.8100   Lee, Yang & Parr

   => Molecular Quadrature <=

    Radial Scheme          =       TREUTLER
    Pruning Scheme         =           NONE
    Nuclear Scheme         =       TREUTLER

    BS radius alpha        =              1
    Pruning alpha          =              1
    Radial Points          =             75
    Spherical Points       =            302
    Total Points           =          65834
    Total Blocks           =            597
    Max Points             =            255
    Max Functions          =            150
    Weights Tolerance      =       1.00E-15


  -Total Gradient:
     Atom            X                  Y                   Z
    ------   -----------------  -----------------  -----------------
       1       -0.000000000000     0.000000000000     0.260857913857
       2       -0.000000000000     0.206776109811    -0.130442300489
       3        0.000000000000    -0.206776109811    -0.130442300489


*** tstop() called on c2-3.compute.lan at Fri Jan 29 10:53:56 2021
Module time:
	user time   =       7.15 seconds =       0.12 minutes
	system time =       0.07 seconds =       0.00 minutes
	total time  =          7 seconds =       0.12 minutes
Total time:
	user time   =      72.69 seconds =       1.21 minutes
	system time =       1.06 seconds =       0.02 minutes
	total time  =         74 seconds =       1.23 minutes

			-----------------------------------------
			 OPTKING 2.0: for geometry optimizations 
			  - R.A. King,  Bethel University        
			-----------------------------------------

	Previous internal coordinate definitions found.
	---Fragment 1 Geometry and Gradient---
	 S           0.0000000000        0.0000000000       -1.3289862935
	 S           0.0000000000       -2.6284054235        0.6644931467
	 S           0.0000000000        2.6284054235        0.6644931467
	            -0.0000000000        0.0000000000        0.2608579139
	            -0.0000000000        0.2067761098       -0.1304423005
	             0.0000000000       -0.2067761098       -0.1304423005

	---Fragment 1 Intrafragment Coordinates---
	 - Coordinate -           - BOHR/RAD -       - ANG/DEG -
	 R(1,2)           =         3.298860	       1.745681
	 R(1,3)           =         3.298860	       1.745681
	 R(2,3)           =         5.256811	       2.781784
	 B(1,2,3)         =         0.648879	      37.178019
	 B(1,3,2)         =         0.648879	      37.178019
	 B(2,1,3)         =         1.843835	     105.643962

	Current energy   :     -1194.5150857417

	Energy change for the previous step:
		Projected    :        -0.2421159198
		Actual       :        -0.1971070444

	Performing BFGS update.
	Previous computed or guess Hessian on step 1.
	Steps to be used in Hessian update: 2 1
	Taking RFO optimization step.
	Going to follow RFO solution 1.
	Using RFO vector 1.
	Norm of target step-size    0.34648
	Projected energy change by RFO approximation:        -0.0939154828

	Back-transformation to cartesian coordinates...
	Successfully converged to displaced geometry.

	--- Internal Coordinate Step in ANG or DEG, aJ/ANG or AJ/DEG ---
	 ---------------------------------------------------------------------------
	   Coordinate                Previous        Force       Change         New 
	   ----------                --------       ------       ------       ------
	    1 R(1,2)          =      1.745681     1.365721     0.113127     1.858808
	    2 R(1,3)          =      1.745681     1.365721     0.113127     1.858808
	    3 R(2,3)          =      2.781784     0.804502     0.056186     2.837970
	    4 B(1,2,3)        =     37.178019     0.003178     3.058505    40.236524
	    5 B(1,3,2)        =     37.178019     0.003178     3.058505    40.236524
	    6 B(2,1,3)        =    105.643962    -0.006356    -6.117009    99.526953
	 ---------------------------------------------------------------------------
	Successfully symmetrized geometry.

  ==> Convergence Check <==

  Measures of convergence in internal coordinates in au.
  Criteria marked as inactive (o), active & met (*), and active & unmet ( ).
  ---------------------------------------------------------------------------------------------
   Step     Total Energy     Delta E     MAX Force     RMS Force      MAX Disp      RMS Disp   
  ---------------------------------------------------------------------------------------------
    Convergence Criteria    1.00e-06 *    3.00e-04 *             o    1.20e-03 *             o
  ---------------------------------------------------------------------------------------------
      3   -1194.51508574   -1.97e-01      1.66e-01      1.12e-01 o    2.14e-01      1.41e-01 o  ~
  ---------------------------------------------------------------------------------------------

	Writing optimization data to binary file.
	Structure for next step:
	Cartesian Geometry (in Angstrom)
	    S     0.0000000000   0.0000000000  -0.8004578052
	    S     0.0000000000  -1.4189850741   0.4002289026
	    S     0.0000000000   1.4189850741   0.4002289026
			--------------------------
			 OPTKING Finished Execution 
			--------------------------

    Structure for next step:
    Molecular point group: c2v
    Full point group: C2v

    Geometry (in Angstrom), charge = -2, multiplicity = 1:

    S       
    S             1          R1
    S             1          R2      2          A1

    A1        =   99.5269525504
    R1        =    1.8588080154
    R2        =    1.8588080154

gradient() will perform analytic gradient computation.

*** tstart() called on c2-3.compute.lan
*** at Fri Jan 29 10:53:56 2021

   => Loading Basis Set <=

    Name: AUG-CC-PVTZ
    Role: ORBITAL
    Keyword: BASIS
    atoms 1-3 entry S          line   906 file /apps/gb/PSI4/1.4.0/share/psi4/basis/aug-cc-pvtz.gbs 


         ---------------------------------------------------------
                                   SCF
               by Justin Turney, Rob Parrish, Andy Simmonett
                          and Daniel G. A. Smith
                              UKS Reference
                        1 Threads,   9536 MiB Core
         ---------------------------------------------------------

  ==> Geometry <==

    Molecular point group: c2v
    Full point group: C2v

    Geometry (in Angstrom), charge = -2, multiplicity = 1:

       Center              X                  Y                   Z               Mass       
    ------------   -----------------  -----------------  -----------------  -----------------
         S            0.000000000000     0.000000000000    -0.800457808384    31.972071174400
         S            0.000000000000    -1.418985079629     0.400228904192    31.972071174400
         S            0.000000000000     1.418985079629     0.400228904192    31.972071174400

  Running in c2v symmetry.

  Rotational constants: A =      0.54860  B =      0.13093  C =      0.10570 [cm^-1]
  Rotational constants: A =  16446.68135  B =   3925.19082  C =   3168.89691 [MHz]
  Nuclear repulsion =  193.493993504276943

  Charge       = -2
  Multiplicity = 1
  Electrons    = 50
  Nalpha       = 25
  Nbeta        = 25

  ==> Algorithm <==

  SCF Algorithm Type is DF.
  DIIS enabled.
  MOM disabled.
  Fractional occupation disabled.
  Guess Type is READ.
  Energy threshold   = 1.00e-08
  Density threshold  = 1.00e-08
  Integral threshold = 0.00e+00

  ==> Primary Basis <==

  Basis Set: AUG-CC-PVTZ
    Blend: AUG-CC-PVTZ
    Number of shells: 48
    Number of basis function: 150
    Number of Cartesian functions: 177
    Spherical Harmonics?: true
    Max angular momentum: 3

  ==> DFT Potential <==

   => Composite Functional: B3LYP <= 

    B3LYP Hyb-GGA Exchange-Correlation Functional

    P. J. Stephens, F. J. Devlin, C. F. Chabalowski, and M. J. Frisch, J. Phys. Chem. 98, 11623 (1994)

    Deriv               =              1
    GGA                 =           TRUE
    Meta                =          FALSE

    Exchange Hybrid     =           TRUE
    MP2 Hybrid          =          FALSE

   => Exchange Functionals <=

    0.0800   Slater exchange
    0.7200         Becke 88

   => Exact (HF) Exchange <=

    0.2000               HF 

   => Correlation Functionals <=

    0.1900   Vosko, Wilk & Nusair (VWN5_RPA)
    0.8100   Lee, Yang & Parr

   => Molecular Quadrature <=

    Radial Scheme          =       TREUTLER
    Pruning Scheme         =           NONE
    Nuclear Scheme         =       TREUTLER

    BS radius alpha        =              1
    Pruning alpha          =              1
    Radial Points          =             75
    Spherical Points       =            302
    Total Points           =          65934
    Total Blocks           =            598
    Max Points             =            256
    Max Functions          =            150
    Weights Tolerance      =       1.00E-15

   => Loading Basis Set <=

    Name: (AUG-CC-PVTZ AUX)
    Role: JKFIT
    Keyword: DF_BASIS_SCF
    atoms 1-3 entry S          line   730 file /apps/gb/PSI4/1.4.0/share/psi4/basis/aug-cc-pvtz-jkfit.gbs 

   => Loading Basis Set <=

    Name: AUG-CC-PVTZ
    Role: ORBITAL
    Keyword: BASIS
    atoms 1-3 entry S          line   906 file /apps/gb/PSI4/1.4.0/share/psi4/basis/aug-cc-pvtz.gbs 

  Reading orbitals from file 180, no projection.

  ==> Pre-Iterations <==

   -------------------------------------------------------
    Irrep   Nso     Nmo     Nalpha   Nbeta   Ndocc  Nsocc
   -------------------------------------------------------
     A1        54      54       0       0       0       0
     A2        22      22       0       0       0       0
     B1        29      29       0       0       0       0
     B2        45      45       0       0       0       0
   -------------------------------------------------------
    Total     150     150      25      25      25       0
   -------------------------------------------------------

  ==> Integral Setup <==

  DFHelper Memory: AOs need 0.080 GiB; user supplied 6.720 GiB. Using in-core AOs.

  ==> MemDFJK: Density-Fitted J/K Matrices <==

    J tasked:                   Yes
    K tasked:                   Yes
    wK tasked:                   No
    OpenMP threads:               1
    Memory [MiB]:              6881
    Algorithm:                 Core
    Schwarz Cutoff:           1E-12
    Mask sparsity (%):       0.0000
    Fitting Condition:        1E-10

   => Auxiliary Basis Set <=

  Basis Set: (AUG-CC-PVTZ AUX)
    Blend: AUG-CC-PVTZ-JKFIT
    Number of shells: 126
    Number of basis function: 438
    Number of Cartesian functions: 540
    Spherical Harmonics?: true
    Max angular momentum: 4

  Cached 100.0% of DFT collocation blocks in 0.265 [GiB].

  Minimum eigenvalue in the overlap matrix is 1.6069102929E-04.
  Using Symmetric Orthogonalization.

  SCF Guess: Orbitals guess was supplied from a previous computation.

  ==> Iterations <==

                           Total Energy        Delta E     RMS |[F,P]|

   @DF-UKS iter   0: -1194.50779670505881   -1.19451e+03   6.92693e-03 
   @DF-UKS iter   1: -1194.58337802770075   -7.55813e-02   6.89593e-04 DIIS
   @DF-UKS iter   2: -1194.58324649559881    1.31532e-04   7.79788e-04 DIIS
   @DF-UKS iter   3: -1194.58525458203894   -2.00809e-03   2.33724e-04 DIIS
   @DF-UKS iter   4: -1194.58547286472822   -2.18283e-04   2.54042e-05 DIIS
   @DF-UKS iter   5: -1194.58547353021504   -6.65487e-07   3.15401e-05 DIIS
   @DF-UKS iter   6: -1194.58547833173566   -4.80152e-06   4.43181e-06 DIIS
[...]
   @DF-UKS iter   5: -1194.64949100973490   -4.64388e-09   3.21016e-07 DIIS
   @DF-UKS iter   6: -1194.64949101021057   -4.75666e-10   9.75888e-08 DIIS
   @DF-UKS iter   7: -1194.64949101025650   -4.59295e-11   1.73376e-08 DIIS
   @DF-UKS iter   8: -1194.64949101025763   -1.13687e-12   3.74219e-09 DIIS
  Energy and wave function converged.


  ==> Post-Iterations <==

   @Spin Contamination Metric:  -4.618527782E-14
   @S^2 Expected:                0.000000000E+00
   @S^2 Observed:               -4.618527782E-14
   @S   Expected:                0.000000000E+00
   @S   Observed:                0.000000000E+00

    Orbital Energies [Eh]
    ---------------------

    Alpha Occupied:                                                       

       1A1   -88.569809     1B2   -88.514759     2A1   -88.514756  
       3A1    -7.613735     2B2    -7.562334     4A1    -7.562330  
       3B2    -5.578958     5A1    -5.575846     1B1    -5.568650  
       6A1    -5.528416     4B2    -5.528415     7A1    -5.520619  
       5B2    -5.520619     1A2    -5.519670     2B1    -5.519670  
       8A1    -0.411613     6B2    -0.306828     9A1    -0.210941  
       7B2    -0.013823    10A1     0.013002     3B1     0.033441  
       2A2     0.110001    11A1     0.113190     8B2     0.118240  
       4B1     0.164945  

    Alpha Virtual:                                                        

       9B2     0.231947    12A1     0.235162    13A1     0.273401  
      14A1     0.290702     5B1     0.296480    10B2     0.297559  
       3A2     0.304335     6B1     0.315859    15A1     0.318167  
      11B2     0.318258    12B2     0.344621    16A1     0.351047  
      17A1     0.417534    13B2     0.424207     7B1     0.463629  
       4A2     0.483797    18A1     0.483900    14B2     0.515831  
      19A1     0.523041    15B2     0.527694     8B1     0.540384  
      20A1     0.546565     5A2     0.553302     9B1     0.587051  
      21A1     0.587052    16B2     0.593166    17B2     0.608811  
       6A2     0.630893    22A1     0.658372    10B1     0.729086  
      23A1     0.751865     7A2     0.802585    24A1     0.806207  
      18B2     0.817051    25A1     0.820925    19B2     0.834648  
       8A2     0.835940    11B1     0.840008    26A1     0.848473  
      12B1     0.857362    20B2     0.863590    27A1     0.895787  
      21B2     0.910386    13B1     0.913141    28A1     0.920539  
       9A2     0.933486    22B2     0.938972    29A1     0.943920  
      23B2     0.957666    14B1     0.971316    30A1     1.012437  
      10A2     1.017731    15B1     1.020928    31A1     1.064552  
      24B2     1.068512    16B1     1.074894    11A2     1.075565  
      32A1     1.088103    25B2     1.104206    33A1     1.131929  
      26B2     1.199699    12A2     1.227772    17B1     1.255713  
      34A1     1.284673    27B2     1.302316    13A2     1.304956  
      35A1     1.378536    18B1     1.392809    28B2     1.411623  
      29B2     1.436254    36A1     1.459982    19B1     1.481754  
      14A2     1.484560    37A1     1.561865    30B2     1.577866  
      31B2     1.663290    38A1     1.788626    39A1     2.095472  
      20B1     2.102764    15A2     2.114289    32B2     2.129972  
      40A1     2.152567    16A2     2.156722    21B1     2.164921  
      41A1     2.188732    33B2     2.189029    22B1     2.254810  
      42A1     2.263006    34B2     2.270441    17A2     2.308292  
      43A1     2.319630    23B1     2.326716    35B2     2.327850  
      18A2     2.345682    36B2     2.359869    24B1     2.368876  
      44A1     2.371661    25B1     2.403948    37B2     2.428545  
      45A1     2.430690    26B1     2.462745    46A1     2.464131  
      19A2     2.472450    38B2     2.480309    47A1     2.530325  
      20A2     2.531573    27B1     2.541164    48A1     2.551010  
      39B2     2.552284    21A2     2.553703    28B1     2.603130  
      49A1     2.636960    40B2     2.642106    41B2     2.663734  
      50A1     2.719972    42B2     2.727376    51A1     2.783368  
      22A2     2.818529    29B1     2.820782    43B2     2.917368  
      52A1     3.818626    44B2     3.846664    53A1     4.826332  
      45B2     5.373068    54A1     5.931154  

    Beta Occupied:                                                        

       1A1   -88.569809     1B2   -88.514759     2A1   -88.514756  
       3A1    -7.613735     2B2    -7.562334     4A1    -7.562330  
       3B2    -5.578958     5A1    -5.575846     1B1    -5.568650  
       6A1    -5.528416     4B2    -5.528415     7A1    -5.520619  
       5B2    -5.520619     1A2    -5.519670     2B1    -5.519670  
       8A1    -0.411613     6B2    -0.306828     9A1    -0.210941  
       7B2    -0.013823    10A1     0.013002     3B1     0.033441  
       2A2     0.110001    11A1     0.113190     8B2     0.118240  
       4B1     0.164945  

    Beta Virtual:                                                         

       9B2     0.231947    12A1     0.235162    13A1     0.273401  
      14A1     0.290702     5B1     0.296480    10B2     0.297559  
       3A2     0.304335     6B1     0.315859    15A1     0.318167  
      11B2     0.318258    12B2     0.344621    16A1     0.351047  
      17A1     0.417534    13B2     0.424207     7B1     0.463629  
       4A2     0.483797    18A1     0.483900    14B2     0.515831  
      19A1     0.523041    15B2     0.527694     8B1     0.540384  
      20A1     0.546565     5A2     0.553302     9B1     0.587051  
      21A1     0.587052    16B2     0.593166    17B2     0.608811  
       6A2     0.630893    22A1     0.658372    10B1     0.729086  
      23A1     0.751865     7A2     0.802585    24A1     0.806207  
      18B2     0.817051    25A1     0.820925    19B2     0.834648  
       8A2     0.835940    11B1     0.840008    26A1     0.848473  
      12B1     0.857362    20B2     0.863590    27A1     0.895787  
      21B2     0.910386    13B1     0.913141    28A1     0.920539  
       9A2     0.933486    22B2     0.938972    29A1     0.943920  
      23B2     0.957666    14B1     0.971316    30A1     1.012437  
      10A2     1.017731    15B1     1.020928    31A1     1.064552  
      24B2     1.068512    16B1     1.074894    11A2     1.075565  
      32A1     1.088103    25B2     1.104206    33A1     1.131929  
      26B2     1.199699    12A2     1.227772    17B1     1.255713  
      34A1     1.284673    27B2     1.302316    13A2     1.304956  
      35A1     1.378536    18B1     1.392809    28B2     1.411623  
      29B2     1.436254    36A1     1.459982    19B1     1.481754  
      14A2     1.484560    37A1     1.561865    30B2     1.577866  
      31B2     1.663290    38A1     1.788626    39A1     2.095472  
      20B1     2.102764    15A2     2.114289    32B2     2.129972  
      40A1     2.152567    16A2     2.156722    21B1     2.164921  
      41A1     2.188732    33B2     2.189029    22B1     2.254810  
      42A1     2.263006    34B2     2.270441    17A2     2.308292  
      43A1     2.319630    23B1     2.326716    35B2     2.327850  
      18A2     2.345682    36B2     2.359869    24B1     2.368876  
      44A1     2.371661    25B1     2.403948    37B2     2.428545  
      45A1     2.430690    26B1     2.462745    46A1     2.464131  
      19A2     2.472450    38B2     2.480309    47A1     2.530325  
      20A2     2.531573    27B1     2.541164    48A1     2.551010  
      39B2     2.552284    21A2     2.553703    28B1     2.603130  
      49A1     2.636960    40B2     2.642106    41B2     2.663734  
      50A1     2.719972    42B2     2.727376    51A1     2.783368  
      22A2     2.818529    29B1     2.820782    43B2     2.917368  
      52A1     3.818626    44B2     3.846664    53A1     4.826332  
      45B2     5.373068    54A1     5.931154  

    Final Occupation by Irrep:
             A1    A2    B1    B2 
    DOCC [    11,    2,    4,    8 ]
    SOCC [     0,    0,    0,    0 ]

  @DF-UKS Final Energy: -1194.64949101025763

   => Energetics <=

    Nuclear Repulsion Energy =            164.5049350691033396
    One-Electron Energy =               -1996.7983587956784959
    Two-Electron Energy =                 699.9815665093267398
    DFT Exchange-Correlation Energy =     -62.3376337930093243
    Empirical Dispersion Energy =           0.0000000000000000
    VV10 Nonlocal Energy =                  0.0000000000000000
    Total Energy =                      -1194.6494910102576341

  UHF NO Occupations:
  HONO-2 :    4 B1 2.0000000
  HONO-1 :    7 B2 2.0000000
  HONO-0 :    8 B2 2.0000000
  LUNO+0 :   12 A1 0.0000000
  LUNO+1 :    9 B2 0.0000000
  LUNO+2 :   10 B2 0.0000000
  LUNO+3 :   13 A1 0.0000000


Computation Completed


Properties will be evaluated at   0.000000,   0.000000,   0.000000 [a0]

Properties computed using the SCF density matrix

  Nuclear Dipole Moment: [e a0]
     X:     0.0000      Y:     0.0000      Z:     0.0000

  Electronic Dipole Moment: [e a0]
     X:     0.0000      Y:     0.0000      Z:    -0.7493

  Dipole Moment: [e a0]
     X:     0.0000      Y:     0.0000      Z:    -0.7493     Total:     0.7493

  Dipole Moment: [D]
     X:     0.0000      Y:     0.0000      Z:    -1.9047     Total:     1.9047


*** tstop() called on c2-3.compute.lan at Fri Jan 29 10:56:41 2021
Module time:
	user time   =      11.09 seconds =       0.18 minutes
	system time =       0.10 seconds =       0.00 minutes
	total time  =         12 seconds =       0.20 minutes
Total time:
	user time   =     235.45 seconds =       3.92 minutes
	system time =       2.73 seconds =       0.05 minutes
	total time  =        239 seconds =       3.98 minutes

*** tstart() called on c2-3.compute.lan
*** at Fri Jan 29 10:56:41 2021


         ------------------------------------------------------------
                                   SCF GRAD                          
                          Rob Parrish, Justin Turney,                
                       Andy Simmonett, and Alex Sokolov              
         ------------------------------------------------------------

  ==> Geometry <==

    Molecular point group: c2v
    Full point group: C2v

    Geometry (in Angstrom), charge = -2, multiplicity = 1:

       Center              X                  Y                   Z               Mass       
    ------------   -----------------  -----------------  -----------------  -----------------
         S            0.000000000000     0.000000000000    -0.776681338742    31.972071174400
         S            0.000000000000    -1.792755381692     0.388340669371    31.972071174400
         S            0.000000000000     1.792755381692     0.388340669371    31.972071174400

  Nuclear repulsion =  164.504935069103340

  ==> Basis Set <==

  Basis Set: AUG-CC-PVTZ
    Blend: AUG-CC-PVTZ
    Number of shells: 48
    Number of basis function: 150
    Number of Cartesian functions: 177
    Spherical Harmonics?: true
    Max angular momentum: 3

  ==> DFJKGrad: Density-Fitted SCF Gradients <==

    Gradient:                    1
    J tasked:                  Yes
    K tasked:                  Yes
    wK tasked:                  No
    OpenMP threads:              1
    Integrals threads:           1
    Memory [MiB]:             7152
    Schwarz Cutoff:          0E+00
    Fitting Condition:       1E-10

   => Auxiliary Basis Set <=

  Basis Set: (AUG-CC-PVTZ AUX)
    Blend: AUG-CC-PVTZ-JKFIT
    Number of shells: 126
    Number of basis function: 438
    Number of Cartesian functions: 540
    Spherical Harmonics?: true
    Max angular momentum: 4

  ==> DFT Potential <==

   => Composite Functional: B3LYP <= 

    B3LYP Hyb-GGA Exchange-Correlation Functional

    P. J. Stephens, F. J. Devlin, C. F. Chabalowski, and M. J. Frisch, J. Phys. Chem. 98, 11623 (1994)

    Deriv               =              1
    GGA                 =           TRUE
    Meta                =          FALSE

    Exchange Hybrid     =           TRUE
    MP2 Hybrid          =          FALSE

   => Exchange Functionals <=

    0.0800   Slater exchange
    0.7200         Becke 88

   => Exact (HF) Exchange <=

    0.2000               HF 

   => Correlation Functionals <=

    0.1900   Vosko, Wilk & Nusair (VWN5_RPA)
    0.8100   Lee, Yang & Parr

   => Molecular Quadrature <=

    Radial Scheme          =       TREUTLER
    Pruning Scheme         =           NONE
    Nuclear Scheme         =       TREUTLER

    BS radius alpha        =              1
    Pruning alpha          =              1
    Radial Points          =             75
    Spherical Points       =            302
    Total Points           =          65906
    Total Blocks           =            600
    Max Points             =            255
    Max Functions          =            150
    Weights Tolerance      =       1.00E-15


  -Total Gradient:
     Atom            X                  Y                   Z
    ------   -----------------  -----------------  -----------------
       1       -0.000000000000     0.000000000000    -0.000042320018
       2        0.000000000000    -0.000035037392     0.000014885026
       3       -0.000000000000     0.000035037392     0.000014885026


*** tstop() called on c2-3.compute.lan at Fri Jan 29 10:56:49 2021
Module time:
	user time   =       7.93 seconds =       0.13 minutes
	system time =       0.09 seconds =       0.00 minutes
	total time  =          8 seconds =       0.13 minutes
Total time:
	user time   =     243.38 seconds =       4.06 minutes
	system time =       2.82 seconds =       0.05 minutes
	total time  =        247 seconds =       4.12 minutes

			-----------------------------------------
			 OPTKING 2.0: for geometry optimizations 
			  - R.A. King,  Bethel University        
			-----------------------------------------

	Previous internal coordinate definitions found.
	---Fragment 1 Geometry and Gradient---
	 S           0.0000000000        0.0000000000       -1.4677150170
	 S           0.0000000000       -3.3878166813        0.7338575085
	 S           0.0000000000        3.3878166813        0.7338575085
	            -0.0000000000        0.0000000000       -0.0000423200
	             0.0000000000       -0.0000350374        0.0000148850
	            -0.0000000000        0.0000350374        0.0000148850

	---Fragment 1 Intrafragment Coordinates---
	 - Coordinate -           - BOHR/RAD -       - ANG/DEG -
	 R(1,2)           =         4.040325	       2.138048
	 R(1,3)           =         4.040325	       2.138048
	 R(2,3)           =         6.775633	       3.585511
	 B(1,2,3)         =         0.576270	      33.017824
	 B(1,3,2)         =         0.576270	      33.017824
	 B(2,1,3)         =         1.989053	     113.964353

	Current energy   :     -1194.6494910103

	Energy change for the previous step:
		Projected    :        -0.0000114729
		Actual       :        -0.0000042307

	Performing BFGS update.
	Previous computed or guess Hessian on step 1.
	Steps to be used in Hessian update: 11 10
	Taking RFO optimization step.
	Going to follow RFO solution 1.
	Using RFO vector 1.
	Norm of target step-size    0.00086
	Projected energy change by RFO approximation:        -0.0000000358

	Back-transformation to cartesian coordinates...
	Successfully converged to displaced geometry.

	--- Internal Coordinate Step in ANG or DEG, aJ/ANG or AJ/DEG ---
	 ---------------------------------------------------------------------------
	   Coordinate                Previous        Force       Change         New 
	   ----------                --------       ------       ------       ------
	    1 R(1,2)          =      2.138048    -0.000223    -0.000174     2.137874
	    2 R(1,3)          =      2.138048    -0.000223    -0.000174     2.137874
	    3 R(2,3)          =      3.585511    -0.000124    -0.000379     3.585132
	    4 B(1,2,3)        =     33.017824    -0.000001     0.002155    33.019978
	    5 B(1,3,2)        =     33.017824    -0.000001     0.002155    33.019978
	    6 B(2,1,3)        =    113.964353     0.000001    -0.004309   113.960043
	 ---------------------------------------------------------------------------
	Successfully symmetrized geometry.

  ==> Convergence Check <==

  Measures of convergence in internal coordinates in au.
  Criteria marked as inactive (o), active & met (*), and active & unmet ( ).
  ---------------------------------------------------------------------------------------------
   Step     Total Energy     Delta E     MAX Force     RMS Force      MAX Disp      RMS Disp   
  ---------------------------------------------------------------------------------------------
    Convergence Criteria    1.00e-06 *    3.00e-04 *             o    1.20e-03 *             o
  ---------------------------------------------------------------------------------------------
     12   -1194.64949101   -4.23e-06      2.71e-05 *    1.82e-05 o    7.17e-04 *    3.51e-04 o  ~
  ---------------------------------------------------------------------------------------------


  **** Optimization is complete! (in 12 steps) ****

  ==> Optimization Summary <==

  Measures of convergence in internal coordinates in au.
  --------------------------------------------------------------------------------------------------------------- ~
   Step         Total Energy             Delta E       MAX Force       RMS Force        MAX Disp        RMS Disp  ~
  --------------------------------------------------------------------------------------------------------------- ~
      1   -1194.096577893719  -1194.096577893719      0.46698975      0.34552749      0.19767329      0.13487404  ~
      2   -1194.317978697331     -0.221400803612      0.32076982      0.22941394      0.28724795      0.19838921  ~
      3   -1194.515085741704     -0.197107044373      0.16576851      0.11177251      0.21377836      0.14128741  ~
      4   -1194.585478496833     -0.070392755129      0.08759578      0.05845255      0.21656709      0.14870719  ~
      5   -1194.621491694452     -0.036013197619      0.03772472      0.02622233      0.23478522      0.11750682  ~
      6   -1194.634821304631     -0.013329610179      0.02648406      0.01428936      0.29060872      0.13386256  ~
      7   -1194.643133707713     -0.008312403083      0.01663450      0.00752384      0.36347393      0.16311719  ~
      8   -1194.648132020289     -0.004998312576      0.00696539      0.00363341      0.23043072      0.10319835  ~
      9   -1194.649343380444     -0.001211360155      0.00231857      0.00183710      0.07609348      0.03473977  ~
     10   -1194.649472930303     -0.000129549858      0.00125869      0.00087003      0.00519021      0.00400361  ~
     11   -1194.649486779548     -0.000013849245      0.00063185      0.00042804      0.00536724      0.00362730  ~
     12   -1194.649491010258     -0.000004230710      0.00002711      0.00001818      0.00071665      0.00035072  ~
  --------------------------------------------------------------------------------------------------------------- ~

	Writing optimization data to binary file.
	Final energy is  -1194.6494910102576
	Final (previous) structure:
	Cartesian Geometry (in Angstrom)
	    S     0.0000000000   0.0000000000  -0.7766813357
	    S     0.0000000000  -1.7927553746   0.3883406678
	    S     0.0000000000   1.7927553746   0.3883406678
	Saving final (previous) structure.
			--------------------------
			 OPTKING Finished Execution 
			--------------------------

    Final optimized geometry and variables:
    Molecular point group: c2v
    Full point group: C2v

    Geometry (in Angstrom), charge = -2, multiplicity = 1:

    S       
    S             1          R1
    S             1          R2      2          A1

    A1        =  113.9643526311
    R1        =    2.1380477399
    R2        =    2.1380477399

	Removing binary optimization data file.
	Cleaning optimization helper files.

    Psi4 stopped on: Friday, 29 January 2021 10:56AM
    Psi4 wall time for execution: 0:04:07.03

*** Psi4 exiting successfully. Buy a developer a beer!
