
    -----------------------------------------------------------------------
          Psi4: An Open-Source Ab Initio Electronic Structure Package
                               Psi4 1.4a2.dev191 

                         Git: Rev {master} 0ab5346 


    R. M. Parrish, L. A. Burns, D. G. A. Smith, A. C. Simmonett,
    A. E. DePrince III, E. G. Hohenstein, U. Bozkaya, A. Yu. Sokolov,
    R. Di Remigio, R. M. Richard, J. F. Gonthier, A. M. James,
    H. R. McAlexander, A. Kumar, M. Saitow, X. Wang, B. P. Pritchard,
    P. Verma, H. F. Schaefer III, K. Patkowski, R. A. King, E. F. Valeev,
    F. A. Evangelista, J. M. Turney, T. D. Crawford, and C. D. Sherrill,
    J. Chem. Theory Comput. 13(7) pp 3185--3197 (2017).
    (doi: 10.1021/acs.jctc.7b00174)


                         Additional Contributions by
    P. Kraus, H. Kruse, M. H. Lechner, M. C. Schieber, R. A. Shaw,
    A. Alenaizan, R. Galvelis, Z. L. Glick, S. Lehtola, and J. P. Misiewicz

    -----------------------------------------------------------------------


    Psi4 started on: Tuesday, 02 February 2021 02:39PM

    Process ID: 108091
    Host:       c2-18.compute.lan
    PSIDATADIR: /apps/gb/PSI4/1.4.0/share/psi4
    Memory:     500.0 MiB
    Threads:    1
    
  ==> Input File <==

--------------------------------------------------------------------------
memory 10 GB

molecule  {
0 3
S
S 1 r1
S 1 r2 2 a1
r1 = 2.0
r2 = 2.1
a1 = 120.0
}

set {
reference uks
basis aug-cc-pvtz
g_convergence gau_verytight
dft_spherical_points 590
dft_radial_points 99
}

optimize('wb97m-v')
frequencies('wb97m-v')

--------------------------------------------------------------------------

  Memory set to   9.313 GiB by Python driver.
gradient() will perform gradient computation by finite difference of analytic energies.

         ----------------------------------------------------------
                                   FINDIF
                     R. A. King and Jonathon Misiewicz
         ---------------------------------------------------------

  Using finite-differences of energies to determine gradients.
    Generating geometries for use with 3-point formula.
    Displacement size will be 5.00e-03.
    Number of atoms is 3.
    Number of symmetric SALCs is 3.
    Translations projected? 1. Rotations projected? 1.
    Number of geometries (including reference) is 7.

  //>>>>>>>>>>>>>>>>>>>>>>>>>>>>>>>>>>>//
  //    Loading displacement 1 of 7    //
  //<<<<<<<<<<<<<<<<<<<<<<<<<<<<<<<<<<<//

*** tstart() called on c2-18.compute.lan
*** at Tue Feb  2 14:39:47 2021

   => Loading Basis Set <=

    Name: AUG-CC-PVTZ
    Role: ORBITAL
    Keyword: BASIS
    atoms 1-3 entry S          line   906 file /apps/gb/PSI4/1.4.0/share/psi4/basis/aug-cc-pvtz.gbs 


         ---------------------------------------------------------
                                   SCF
               by Justin Turney, Rob Parrish, Andy Simmonett
                          and Daniel G. A. Smith
                              UKS Reference
                        1 Threads,   9536 MiB Core
         ---------------------------------------------------------

  ==> Geometry <==

    Molecular point group: cs
    Full point group: Cs

    Geometry (in Angstrom), charge = 0, multiplicity = 3:

       Center              X                  Y                   Z               Mass       
    ------------   -----------------  -----------------  -----------------  -----------------
         S            0.606217782649     0.316666666667     0.000000000000    31.972071174400
         S            0.606217782649    -1.683333333333     0.000000000000    31.972071174400
         S           -1.212435565298     1.366666666667     0.000000000000    31.972071174400

  Running in cs symmetry.

  Rotational constants: A =      0.75413  B =      0.08359  C =      0.07525 [cm^-1]
  Rotational constants: A =  22608.14975  B =   2506.04720  C =   2255.97858 [MHz]
  Nuclear repulsion =  170.392939668640480

  Charge       = 0
  Multiplicity = 3
  Electrons    = 48
  Nalpha       = 25
  Nbeta        = 23

  ==> Algorithm <==

  SCF Algorithm Type is DF.
  DIIS enabled.
  MOM disabled.
  Fractional occupation disabled.
  Guess Type is SAD.
  Energy threshold   = 1.00e-08
  Density threshold  = 1.00e-08
  Integral threshold = 0.00e+00

  ==> Primary Basis <==

  Basis Set: AUG-CC-PVTZ
    Blend: AUG-CC-PVTZ
    Number of shells: 48
    Number of basis function: 150
    Number of Cartesian functions: 177
    Spherical Harmonics?: true
    Max angular momentum: 3

  ==> DFT Potential <==

   => Composite Functional: WB97M-V <= 

    wB97M-V Hyb-GGA Exchange-Correlation Functional

    N. Mardirossian and M. Head-Gordon, J. Chem. Phys. 144, 214110 (2016)

    Deriv               =              1
    GGA                 =           TRUE
    Meta                =           TRUE

    Exchange Hybrid     =           TRUE
    MP2 Hybrid          =          FALSE

   => Exchange-Correlation Functionals <=

    1.0000   wB97M-V exchange-correlation functional

   => Exact (HF) Exchange <=

    0.8500            HF,LR [omega = 0.3000]
    0.1500               HF 

   => VV10 Non-Local Parameters <=

    VV10 B              =     6.0000E+00
    VV10 C              =     1.0000E-02

   => Molecular Quadrature <=

    Radial Scheme          =       TREUTLER
    Pruning Scheme         =           NONE
    Nuclear Scheme         =       TREUTLER

    BS radius alpha        =              1
    Pruning alpha          =              1
    Radial Points          =             99
    Spherical Points       =            590
    Total Points           =         169927
    Total Blocks           =           1392
    Max Points             =            256
    Max Functions          =            150
    Weights Tolerance      =       1.00E-15

   => Loading Basis Set <=

    Name: (AUG-CC-PVTZ AUX)
    Role: JKFIT
    Keyword: DF_BASIS_SCF
    atoms 1-3 entry S          line   730 file /apps/gb/PSI4/1.4.0/share/psi4/basis/aug-cc-pvtz-jkfit.gbs 

  ==> Pre-Iterations <==

   -------------------------------------------------------
    Irrep   Nso     Nmo     Nalpha   Nbeta   Ndocc  Nsocc
   -------------------------------------------------------
     A'        99      99       0       0       0       0
     A"        51      51       0       0       0       0
   -------------------------------------------------------
    Total     150     150      25      23      23       2
   -------------------------------------------------------

  ==> Integral Setup <==

  ==> DiskDFJK: Density-Fitted J/K Matrices <==

    J tasked:                  Yes
    K tasked:                  Yes
    wK tasked:                 Yes
    Omega:               3.000E-01
    OpenMP threads:              1
    Integrals threads:           1
    Memory [MiB]:             5488
    Algorithm:                Core
    Integral Cache:           NONE
    Schwarz Cutoff:          1E-12
    Fitting Condition:       1E-10

   => Auxiliary Basis Set <=

  Basis Set: (AUG-CC-PVTZ AUX)
    Blend: AUG-CC-PVTZ-JKFIT
    Number of shells: 126
    Number of basis function: 438
    Number of Cartesian functions: 540
    Spherical Harmonics?: true
    Max angular momentum: 4

  Cached 100.0% of DFT collocation blocks in 1.625 [GiB].

  Minimum eigenvalue in the overlap matrix is 2.2915518432E-04.
  Using Symmetric Orthogonalization.

  SCF Guess: Superposition of Atomic Densities via on-the-fly atomic UHF.

  ==> Iterations <==

                           Total Energy        Delta E     RMS |[F,P]|

   @DF-UKS iter SAD: -1194.00650497719971   -1.19401e+03   0.00000e+00 
   @DF-UKS iter   1: -1194.44027486387313   -4.33770e-01   3.10089e-03 DIIS
   @DF-UKS iter   2: -1194.44457532708179   -4.30046e-03   2.73706e-03 DIIS
   @DF-UKS iter   3: -1194.49285324130346   -4.82779e-02   6.30164e-04 DIIS
   @DF-UKS iter   4: -1194.49568807556125   -2.83483e-03   1.68164e-04 DIIS
   @DF-UKS iter   5: -1194.49600265424988   -3.14579e-04   1.23826e-04 DIIS
   @DF-UKS iter   6: -1194.49624618321059   -2.43529e-04   3.79372e-05 DIIS
   @DF-UKS iter   7: -1194.49636536031244   -1.19177e-04   3.17456e-05 DIIS
   @DF-UKS iter   8: -1194.49644839815164   -8.30378e-05   3.37811e-05 DIIS
   @DF-UKS iter   9: -1194.49634853660700    9.98615e-05   3.00489e-05 DIIS
   @DF-UKS iter  10: -1194.49609652845697    2.52008e-04   1.58415e-05 DIIS
   @DF-UKS iter  11: -1194.49607440170576    2.21268e-05   8.24245e-06 DIIS
   @DF-UKS iter  12: -1194.49607269533044    1.70638e-06   3.38334e-06 DIIS
   @DF-UKS iter  13: -1194.49607315505318   -4.59723e-07   1.06636e-06 DIIS
   @DF-UKS iter  14: -1194.49607319780466   -4.27515e-08   4.79563e-07 DIIS
   @DF-UKS iter  15: -1194.49607320650875   -8.70409e-09   2.13704e-07 DIIS
   @DF-UKS iter  16: -1194.49607320933364   -2.82489e-09   1.21002e-07 DIIS
   @DF-UKS iter  17: -1194.49607321010626   -7.72616e-10   8.33331e-08 DIIS
   @DF-UKS iter  18: -1194.49607321049689   -3.90628e-10   4.46166e-08 DIIS
   @DF-UKS iter  19: -1194.49607321060989   -1.13005e-10   2.15938e-08 DIIS
   @DF-UKS iter  20: -1194.49607321064650   -3.66072e-11   9.87335e-09 DIIS
  Energy and wave function converged.


  ==> Post-Iterations <==

   @Spin Contamination Metric:   2.967853213E-02
   @S^2 Expected:                2.000000000E+00
   @S^2 Observed:                2.029678532E+00
   @S   Expected:                1.000000000E+00
   @S   Observed:                1.000000000E+00

    Orbital Energies [Eh]
    ---------------------

    Alpha Occupied:                                                       

       1Ap   -89.328145     2Ap   -89.266277     3Ap   -89.251766  
       4Ap    -8.232536     5Ap    -8.176152     6Ap    -8.160594  
       1App   -6.141151     7Ap    -6.140763     8Ap    -6.140241  
       9Ap    -6.089029    10Ap    -6.082547     2App   -6.081350  
      11Ap    -6.074945     3App   -6.066140    12Ap    -6.064800  
      13Ap    -0.980307    14Ap    -0.858062    15Ap    -0.739136  
      16Ap    -0.532360    17Ap    -0.502942     4App   -0.499157  
       5App   -0.396736    18Ap    -0.388823    19Ap    -0.377692  
       6App   -0.327341  

    Alpha Virtual:                                                        

      20Ap    -0.013413    21Ap     0.024611    22Ap     0.047448  
      23Ap     0.056804     7App    0.064690    24Ap     0.066827  
      25Ap     0.082759    26Ap     0.086005     8App    0.089439  
       9App    0.096337    27Ap     0.097887    28Ap     0.111327  
      29Ap     0.170734    10App    0.182494    30Ap     0.192851  
      11App    0.200498    31Ap     0.203071    32Ap     0.243640  
      33Ap     0.264867    34Ap     0.271262    12App    0.277876  
      13App    0.283320    35Ap     0.291124    14App    0.335698  
      36Ap     0.336909    37Ap     0.345583    38Ap     0.359226  
      15App    0.379968    39Ap     0.400114    16App    0.447146  
      40Ap     0.468282    17App    0.513559    41Ap     0.525371  
      42Ap     0.538498    43Ap     0.544500    18App    0.547445  
      44Ap     0.552641    19App    0.555511    45Ap     0.557653  
      20App    0.572300    46Ap     0.576691    21App    0.610899  
      47Ap     0.611763    48Ap     0.618565    49Ap     0.624517  
      22App    0.635190    50Ap     0.642302    51Ap     0.654158  
      52Ap     0.675930    23App    0.678336    53Ap     0.719094  
      24App    0.725450    25App    0.733538    54Ap     0.781364  
      26App    0.786387    55Ap     0.788398    27App    0.801773  
      56Ap     0.816298    57Ap     0.836695    58Ap     0.845807  
      59Ap     0.921457    28App    0.936528    29App    0.973132  
      60Ap     1.002609    30App    1.033926    61Ap     1.041497  
      31App    1.110964    62Ap     1.111981    63Ap     1.120540  
      64Ap     1.152494    65Ap     1.171991    32App    1.197033  
      33App    1.203261    66Ap     1.292283    67Ap     1.305944  
      68Ap     1.368123    69Ap     1.471447    70Ap     1.748935  
      34App    1.764645    35App    1.780589    71Ap     1.793893  
      72Ap     1.823664    36App    1.832118    37App    1.834677  
      73Ap     1.848217    74Ap     1.876626    38App    1.911117  
      75Ap     1.922828    76Ap     1.944418    77Ap     1.963404  
      39App    1.974598    78Ap     1.979761    40App    1.983910  
      41App    2.004795    79Ap     2.010254    42App    2.031737  
      80Ap     2.043863    43App    2.055948    81Ap     2.084611  
      82Ap     2.101869    44App    2.119934    83Ap     2.128754  
      45App    2.137349    84Ap     2.142638    46App    2.212726  
      85Ap     2.217702    47App    2.229169    86Ap     2.234889  
      87Ap     2.249238    48App    2.261491    49App    2.307512  
      88Ap     2.343614    89Ap     2.359134    90Ap     2.414646  
      91Ap     2.427984    92Ap     2.457032    50App    2.497883  
      93Ap     2.514916    51App    2.561974    94Ap     2.664368  
      95Ap     3.553014    96Ap     3.662912    97Ap     4.739674  
      98Ap     5.152752    99Ap     5.619976  

    Beta Occupied:                                                        

       1Ap   -89.324213     2Ap   -89.261443     3Ap   -89.247553  
       4Ap    -8.228487     5Ap    -8.171303     6Ap    -8.156391  
       7Ap    -6.138558     8Ap    -6.135383     1App   -6.129308  
       9Ap    -6.082217    10Ap    -6.074241     2App   -6.072501  
      11Ap    -6.068277    12Ap    -6.058923     3App   -6.057752  
      13Ap    -0.961427    14Ap    -0.832592    15Ap    -0.695217  
      16Ap    -0.502143    17Ap    -0.481848     4App   -0.460593  
       5App   -0.342580    18Ap    -0.333716  

    Beta Virtual:                                                         

      19Ap    -0.144915     6App   -0.088230    20Ap    -0.001555  
      21Ap     0.031023    22Ap     0.049303    23Ap     0.056887  
       7App    0.065530    24Ap     0.075099    25Ap     0.086327  
       8App    0.089479    26Ap     0.092721     9App    0.097097  
      27Ap     0.100180    28Ap     0.115276    29Ap     0.171578  
      10App    0.188131    30Ap     0.194707    31Ap     0.207080  
      11App    0.214047    32Ap     0.250788    33Ap     0.274092  
      34Ap     0.277994    12App    0.289808    13App    0.290239  
      35Ap     0.296229    36Ap     0.339519    14App    0.340260  
      37Ap     0.348719    38Ap     0.361953    15App    0.383480  
      39Ap     0.405463    16App    0.455445    40Ap     0.471935  
      17App    0.522485    41Ap     0.529261    42Ap     0.545713  
      43Ap     0.551481    44Ap     0.558270    18App    0.558685  
      45Ap     0.561842    19App    0.565835    20App    0.577728  
      46Ap     0.584396    47Ap     0.615431    21App    0.631310  
      48Ap     0.631784    49Ap     0.639413    22App    0.648963  
      50Ap     0.656074    51Ap     0.669156    52Ap     0.689059  
      23App    0.690143    53Ap     0.732266    24App    0.734976  
      25App    0.752119    54Ap     0.787091    26App    0.791310  
      55Ap     0.794196    27App    0.809207    56Ap     0.830524  
      57Ap     0.848172    58Ap     0.851545    59Ap     0.927578  
      28App    0.940428    29App    0.979452    60Ap     1.006182  
      30App    1.039145    61Ap     1.045216    62Ap     1.115443  
      31App    1.115810    63Ap     1.125428    64Ap     1.158401  
      65Ap     1.180128    32App    1.203726    33App    1.211248  
      66Ap     1.308885    67Ap     1.313471    68Ap     1.389294  
      69Ap     1.499626    70Ap     1.781983    34App    1.793544  
      35App    1.816615    71Ap     1.826332    36App    1.847735  
      72Ap     1.854772    73Ap     1.866249    37App    1.870104  
      74Ap     1.895346    75Ap     1.943190    38App    1.945031  
      76Ap     1.967624    77Ap     1.980871    39App    1.996427  
      78Ap     1.998134    40App    2.010573    41App    2.023066  
      79Ap     2.027222    42App    2.057361    80Ap     2.062731  
      43App    2.091981    81Ap     2.110433    82Ap     2.131111  
      44App    2.154898    83Ap     2.159245    45App    2.169757  
      84Ap     2.174749    46App    2.233439    85Ap     2.243389  
      47App    2.252422    86Ap     2.256148    87Ap     2.271897  
      48App    2.284751    49App    2.332825    88Ap     2.365900  
      89Ap     2.377688    90Ap     2.428550    91Ap     2.443532  
      92Ap     2.476141    50App    2.519719    93Ap     2.529994  
      51App    2.585058    94Ap     2.682599    95Ap     3.565591  
      96Ap     3.671305    97Ap     4.756813    98Ap     5.168728  
      99Ap     5.634206  

    Final Occupation by Irrep:
             Ap   App 
    DOCC [    18,    5 ]
    SOCC [     1,    1 ]

  @DF-UKS Final Energy: -1194.49607321064650

   => Energetics <=

    Nuclear Repulsion Energy =            170.3929396686404800
    One-Electron Energy =               -1987.9305424289341317
    Two-Electron Energy =                 682.1622170823669649
    DFT Exchange-Correlation Energy =     -59.3190936841152592
    Empirical Dispersion Energy =           0.0000000000000000
    VV10 Nonlocal Energy =                  0.1984061513953207
    Total Energy =                      -1194.4960732106465002

  UHF NO Occupations:
  HONO-2 :   18 Ap 1.9887280
  HONO-1 :    6App 1.0000000
  HONO-0 :   19 Ap 1.0000000
  LUNO+0 :   20 Ap 0.0112720
  LUNO+1 :    7App 0.0018282
  LUNO+2 :    8App 0.0008064
  LUNO+3 :   21 Ap 0.0005861


Computation Completed


Properties will be evaluated at   0.000000,   0.000000,   0.000000 [a0]

Properties computed using the SCF density matrix

  Nuclear Dipole Moment: [e a0]
     X:     0.0000      Y:    -0.0000      Z:     0.0000

  Electronic Dipole Moment: [e a0]
     X:     0.1770      Y:    -0.1694      Z:     0.0000

  Dipole Moment: [e a0]
     X:     0.1770      Y:    -0.1694      Z:     0.0000     Total:     0.2450

  Dipole Moment: [D]
     X:     0.4499      Y:    -0.4306      Z:     0.0000     Total:     0.6227


*** tstop() called on c2-18.compute.lan at Tue Feb  2 14:50:54 2021
Module time:
	user time   =     384.69 seconds =       6.41 minutes
	system time =      47.45 seconds =       0.79 minutes
	total time  =        667 seconds =      11.12 minutes
Total time:
	user time   =     384.69 seconds =       6.41 minutes
	system time =      47.45 seconds =       0.79 minutes
	total time  =        667 seconds =      11.12 minutes

  //>>>>>>>>>>>>>>>>>>>>>>>>>>>>>>>>>>>//
  //    Loading displacement 2 of 7    //
  //<<<<<<<<<<<<<<<<<<<<<<<<<<<<<<<<<<<//

*** tstart() called on c2-18.compute.lan
*** at Tue Feb  2 14:50:54 2021

   => Loading Basis Set <=

    Name: AUG-CC-PVTZ
    Role: ORBITAL
    Keyword: BASIS
    atoms 1-3 entry S          line   906 file /apps/gb/PSI4/1.4.0/share/psi4/basis/aug-cc-pvtz.gbs 


         ---------------------------------------------------------
                                   SCF
               by Justin Turney, Rob Parrish, Andy Simmonett
                          and Daniel G. A. Smith
                              UKS Reference
                        1 Threads,   9536 MiB Core
         ---------------------------------------------------------

  ==> Geometry <==

    Molecular point group: cs
    Full point group: Cs

    Geometry (in Angstrom), charge = 0, multiplicity = 3:

       Center              X                  Y                   Z               Mass       
    ------------   -----------------  -----------------  -----------------  -----------------
         S            0.605839838422     0.316650793508     0.000000000000    31.972071174400
         S            0.606366824283    -1.683349206492     0.000000000000    31.972071174400
         S           -1.212206662705     1.366698412984     0.000000000000    31.972071174400

  Running in cs symmetry.

  Rotational constants: A =      0.75486  B =      0.08359  C =      0.07526 [cm^-1]
  Rotational constants: A =  22630.03950  B =   2506.05749  C =   2256.20469 [MHz]
  Nuclear repulsion =  170.408352754223131

  Charge       = 0
  Multiplicity = 3
  Electrons    = 48
  Nalpha       = 25
  Nbeta        = 23

  ==> Algorithm <==

  SCF Algorithm Type is DF.
  DIIS enabled.
  MOM disabled.
  Fractional occupation disabled.
  Guess Type is SAD.
  Energy threshold   = 1.00e-08
  Density threshold  = 1.00e-08
  Integral threshold = 0.00e+00

  ==> Primary Basis <==

  Basis Set: AUG-CC-PVTZ
    Blend: AUG-CC-PVTZ
    Number of shells: 48
    Number of basis function: 150
    Number of Cartesian functions: 177
    Spherical Harmonics?: true
    Max angular momentum: 3

  ==> DFT Potential <==

   => Composite Functional: WB97M-V <= 

    wB97M-V Hyb-GGA Exchange-Correlation Functional

    N. Mardirossian and M. Head-Gordon, J. Chem. Phys. 144, 214110 (2016)

    Deriv               =              1
    GGA                 =           TRUE
    Meta                =           TRUE

    Exchange Hybrid     =           TRUE
    MP2 Hybrid          =          FALSE

   => Exchange-Correlation Functionals <=

    1.0000   wB97M-V exchange-correlation functional

   => Exact (HF) Exchange <=

    0.8500            HF,LR [omega = 0.3000]
    0.1500               HF 

   => VV10 Non-Local Parameters <=

    VV10 B              =     6.0000E+00
    VV10 C              =     1.0000E-02

   => Molecular Quadrature <=

    Radial Scheme          =       TREUTLER
    Pruning Scheme         =           NONE
    Nuclear Scheme         =       TREUTLER

    BS radius alpha        =              1
    Pruning alpha          =              1
    Radial Points          =             99
    Spherical Points       =            590
    Total Points           =         169930
    Total Blocks           =           1395
    Max Points             =            256
    Max Functions          =            150
    Weights Tolerance      =       1.00E-15

   => Loading Basis Set <=

    Name: (AUG-CC-PVTZ AUX)
    Role: JKFIT
    Keyword: DF_BASIS_SCF
    atoms 1-3 entry S          line   730 file /apps/gb/PSI4/1.4.0/share/psi4/basis/aug-cc-pvtz-jkfit.gbs 

  ==> Pre-Iterations <==

   -------------------------------------------------------
    Irrep   Nso     Nmo     Nalpha   Nbeta   Ndocc  Nsocc
   -------------------------------------------------------
     A'        99      99       0       0       0       0
     A"        51      51       0       0       0       0
   -------------------------------------------------------
    Total     150     150      25      23      23       2
   -------------------------------------------------------

  ==> Integral Setup <==

  ==> DiskDFJK: Density-Fitted J/K Matrices <==

    J tasked:                  Yes
    K tasked:                  Yes
    wK tasked:                 Yes
    Omega:               3.000E-01
    OpenMP threads:              1
    Integrals threads:           1
    Memory [MiB]:             5488
    Algorithm:                Core
    Integral Cache:           NONE
    Schwarz Cutoff:          1E-12
    Fitting Condition:       1E-10

   => Auxiliary Basis Set <=

  Basis Set: (AUG-CC-PVTZ AUX)
    Blend: AUG-CC-PVTZ-JKFIT
    Number of shells: 126
    Number of basis function: 438
    Number of Cartesian functions: 540
    Spherical Harmonics?: true
    Max angular momentum: 4

  Cached 100.0% of DFT collocation blocks in 1.625 [GiB].

  Minimum eigenvalue in the overlap matrix is 2.2907929932E-04.
  Using Symmetric Orthogonalization.

  SCF Guess: Superposition of Atomic Densities via on-the-fly atomic UHF.

  ==> Iterations <==

                           Total Energy        Delta E     RMS |[F,P]|

   @DF-UKS iter SAD: -1194.00702522081406   -1.19401e+03   0.00000e+00 
   @DF-UKS iter   1: -1194.44034739323047   -4.33322e-01   3.10055e-03 DIIS
   @DF-UKS iter   2: -1194.44470282668817   -4.35543e-03   2.73536e-03 DIIS
   @DF-UKS iter   3: -1194.49290437621653   -4.82015e-02   6.29670e-04 DIIS
   @DF-UKS iter   4: -1194.49573425051722   -2.82987e-03   1.67552e-04 DIIS
   @DF-UKS iter   5: -1194.49604700375494   -3.12753e-04   1.23780e-04 DIIS
   @DF-UKS iter   6: -1194.49628948310374   -2.42479e-04   3.78484e-05 DIIS
   @DF-UKS iter   7: -1194.49640780269488   -1.18320e-04   3.16198e-05 DIIS
   @DF-UKS iter   8: -1194.49649038367670   -8.25810e-05   3.36401e-05 DIIS
   @DF-UKS iter   9: -1194.49639229067611    9.80930e-05   2.99700e-05 DIIS
   @DF-UKS iter  10: -1194.49614107629759    2.51214e-04   1.58089e-05 DIIS
   @DF-UKS iter  11: -1194.49611882034765    2.22559e-05   8.23240e-06 DIIS
   @DF-UKS iter  12: -1194.49611707335816    1.74699e-06   3.37522e-06 DIIS
   @DF-UKS iter  13: -1194.49611752996043   -4.56602e-07   1.06284e-06 DIIS
   @DF-UKS iter  14: -1194.49611757263392   -4.26735e-08   4.78110e-07 DIIS
   @DF-UKS iter  15: -1194.49611758131573   -8.68181e-09   2.13495e-07 DIIS
   @DF-UKS iter  16: -1194.49611758413585   -2.82012e-09   1.19811e-07 DIIS
   @DF-UKS iter  17: -1194.49611758490801   -7.72161e-10   8.26643e-08 DIIS
   @DF-UKS iter  18: -1194.49611758529454   -3.86535e-10   4.44993e-08 DIIS
   @DF-UKS iter  19: -1194.49611758540277   -1.08230e-10   2.15199e-08 DIIS
   @DF-UKS iter  20: -1194.49611758544074   -3.79714e-11   9.80764e-09 DIIS
  Energy and wave function converged.


  ==> Post-Iterations <==

   @Spin Contamination Metric:   2.962371700E-02
   @S^2 Expected:                2.000000000E+00
   @S^2 Observed:                2.029623717E+00
   @S   Expected:                1.000000000E+00
   @S   Observed:                1.000000000E+00

    Orbital Energies [Eh]
    ---------------------

    Alpha Occupied:                                                       

       1Ap   -89.328141     2Ap   -89.266233     3Ap   -89.251789  
       4Ap    -8.232536     5Ap    -8.176110     6Ap    -8.160622  
       1App   -6.141151     7Ap    -6.140763     8Ap    -6.140240  
       9Ap    -6.088989    10Ap    -6.082501     2App   -6.081308  
      11Ap    -6.074967     3App   -6.066169    12Ap    -6.064833  
      13Ap    -0.980345    14Ap    -0.858122    15Ap    -0.739102  
      16Ap    -0.532387    17Ap    -0.502958     4App   -0.499179  
       5App   -0.396757    18Ap    -0.388796    19Ap    -0.377720  
       6App   -0.327311  

    Alpha Virtual:                                                        

      20Ap    -0.013370    21Ap     0.024643    22Ap     0.047453  
      23Ap     0.056805     7App    0.064690    24Ap     0.066861  
      25Ap     0.082776    26Ap     0.086001     8App    0.089436  
       9App    0.096344    27Ap     0.097889    28Ap     0.111325  
      29Ap     0.170733    10App    0.182490    30Ap     0.192857  
      11App    0.200503    31Ap     0.203055    32Ap     0.243634  
      33Ap     0.264912    34Ap     0.271261    12App    0.277912  
      13App    0.283301    35Ap     0.291138    14App    0.335708  
      36Ap     0.336911    37Ap     0.345600    38Ap     0.359244  
      15App    0.379992    39Ap     0.400127    16App    0.447142  
      40Ap     0.468264    17App    0.513532    41Ap     0.525383  
      42Ap     0.538493    43Ap     0.544476    18App    0.547443  
      44Ap     0.552660    19App    0.555553    45Ap     0.557655  
      20App    0.572319    46Ap     0.576669    21App    0.610916  
      47Ap     0.611790    48Ap     0.618583    49Ap     0.624521  
      22App    0.635156    50Ap     0.642289    51Ap     0.654182  
      52Ap     0.675962    23App    0.678344    53Ap     0.719105  
      24App    0.725444    25App    0.733601    54Ap     0.781393  
      26App    0.786381    55Ap     0.788408    27App    0.801827  
      56Ap     0.816453    57Ap     0.836739    58Ap     0.845820  
      59Ap     0.921503    28App    0.936506    29App    0.973187  
      60Ap     1.002660    30App    1.034016    61Ap     1.041592  
      31App    1.111009    62Ap     1.112034    63Ap     1.120579  
      64Ap     1.152574    65Ap     1.172005    32App    1.197083  
      33App    1.203354    66Ap     1.292417    67Ap     1.306047  
      68Ap     1.368170    69Ap     1.471484    70Ap     1.748917  
      34App    1.764656    35App    1.780611    71Ap     1.793895  
      72Ap     1.823704    36App    1.832123    37App    1.834710  
      73Ap     1.848280    74Ap     1.876525    38App    1.911120  
      75Ap     1.922885    76Ap     1.944407    77Ap     1.963370  
      39App    1.974568    78Ap     1.979702    40App    1.983887  
      41App    2.004795    79Ap     2.010182    42App    2.031703  
      80Ap     2.043822    43App    2.055941    81Ap     2.084560  
      82Ap     2.101900    44App    2.119976    83Ap     2.128749  
      45App    2.137333    84Ap     2.142620    46App    2.212710  
      85Ap     2.217747    47App    2.229358    86Ap     2.234981  
      87Ap     2.249339    48App    2.261507    49App    2.307637  
      88Ap     2.343786    89Ap     2.359623    90Ap     2.414747  
      91Ap     2.428065    92Ap     2.457105    50App    2.498186  
      93Ap     2.514949    51App    2.562003    94Ap     2.664640  
      95Ap     3.553602    96Ap     3.663024    97Ap     4.740435  
      98Ap     5.152882    99Ap     5.619873  

    Beta Occupied:                                                        

       1Ap   -89.324209     2Ap   -89.261401     3Ap   -89.247575  
       4Ap    -8.228485     5Ap    -8.171263     6Ap    -8.156418  
       7Ap    -6.138557     8Ap    -6.135380     1App   -6.129306  
       9Ap    -6.082178    10Ap    -6.074200     2App   -6.072461  
      11Ap    -6.068300    12Ap    -6.058951     3App   -6.057778  
      13Ap    -0.961465    14Ap    -0.832656    15Ap    -0.695179  
      16Ap    -0.502160    17Ap    -0.481868     4App   -0.460620  
       5App   -0.342604    18Ap    -0.333740  

    Beta Virtual:                                                         

      19Ap    -0.144895     6App   -0.088195    20Ap    -0.001524  
      21Ap     0.031039    22Ap     0.049307    23Ap     0.056888  
       7App    0.065530    24Ap     0.075116    25Ap     0.086323  
       8App    0.089474    26Ap     0.092768     9App    0.097103  
      27Ap     0.100181    28Ap     0.115285    29Ap     0.171579  
      10App    0.188126    30Ap     0.194714    31Ap     0.207062  
      11App    0.214056    32Ap     0.250778    33Ap     0.274102  
      34Ap     0.278029    12App    0.289832    13App    0.290233  
      35Ap     0.296246    36Ap     0.339517    14App    0.340270  
      37Ap     0.348738    38Ap     0.361967    15App    0.383505  
      39Ap     0.405478    16App    0.455440    40Ap     0.471920  
      17App    0.522457    41Ap     0.529279    42Ap     0.545704  
      43Ap     0.551453    44Ap     0.558287    18App    0.558683  
      45Ap     0.561843    19App    0.565876    20App    0.577745  
      46Ap     0.584370    47Ap     0.615454    21App    0.631326  
      48Ap     0.631794    49Ap     0.639417    22App    0.648928  
      50Ap     0.656054    51Ap     0.669190    52Ap     0.689101  
      23App    0.690149    53Ap     0.732274    24App    0.734969  
      25App    0.752186    54Ap     0.787109    26App    0.791301  
      55Ap     0.794217    27App    0.809265    56Ap     0.830669  
      57Ap     0.848220    58Ap     0.851561    59Ap     0.927622  
      28App    0.940406    29App    0.979507    60Ap     1.006235  
      30App    1.039236    61Ap     1.045312    62Ap     1.115475  
      31App    1.115855    63Ap     1.125486    64Ap     1.158486  
      65Ap     1.180146    32App    1.203780    33App    1.211342  
      66Ap     1.309028    67Ap     1.313580    68Ap     1.389337  
      69Ap     1.499663    70Ap     1.781966    34App    1.793549  
      35App    1.816651    71Ap     1.826327    36App    1.847748  
      72Ap     1.854853    73Ap     1.866281    37App    1.870108  
      74Ap     1.895252    75Ap     1.943243    38App    1.945035  
      76Ap     1.967585    77Ap     1.980826    39App    1.996390  
      78Ap     1.998106    40App    2.010566    41App    2.023061  
      79Ap     2.027133    42App    2.057318    80Ap     2.062696  
      43App    2.091985    81Ap     2.110374    82Ap     2.131129  
      44App    2.154927    83Ap     2.159242    45App    2.169744  
      84Ap     2.174726    46App    2.233427    85Ap     2.243438  
      47App    2.252606    86Ap     2.256241    87Ap     2.272002  
      48App    2.284765    49App    2.332951    88Ap     2.366021  
      89Ap     2.378200    90Ap     2.428669    91Ap     2.443604  
      92Ap     2.476202    50App    2.520014    93Ap     2.530046  
      51App    2.585094    94Ap     2.682870    95Ap     3.566180  
      96Ap     3.671410    97Ap     4.757575    98Ap     5.168855  
      99Ap     5.634106  

    Final Occupation by Irrep:
             Ap   App 
    DOCC [    18,    5 ]
    SOCC [     1,    1 ]

  @DF-UKS Final Energy: -1194.49611758544074

   => Energetics <=

    Nuclear Repulsion Energy =            170.4083527542231309
    One-Electron Energy =               -1987.9612650125477558
    Two-Electron Energy =                 682.1775919097797214
    DFT Exchange-Correlation Energy =     -59.3192027218387992
    Empirical Dispersion Energy =           0.0000000000000000
    VV10 Nonlocal Energy =                  0.1984054849428597
    Total Energy =                      -1194.4961175854407429

  UHF NO Occupations:
  HONO-2 :   18 Ap 1.9887552
  HONO-1 :   19 Ap 1.0000000
  HONO-0 :    6App 1.0000000
  LUNO+0 :   20 Ap 0.0112448
  LUNO+1 :    7App 0.0018285
  LUNO+2 :    8App 0.0008062
  LUNO+3 :   21 Ap 0.0005861


Computation Completed


Properties will be evaluated at   0.000000,   0.000000,   0.000000 [a0]

Properties computed using the SCF density matrix

  Nuclear Dipole Moment: [e a0]
     X:     0.0000      Y:     0.0000      Z:     0.0000

  Electronic Dipole Moment: [e a0]
     X:     0.1763      Y:    -0.1685      Z:     0.0000

  Dipole Moment: [e a0]
     X:     0.1763      Y:    -0.1685      Z:     0.0000     Total:     0.2439

  Dipole Moment: [D]
     X:     0.4482      Y:    -0.4284      Z:     0.0000     Total:     0.6200


*** tstop() called on c2-18.compute.lan at Tue Feb  2 14:59:44 2021
Module time:
	user time   =     386.47 seconds =       6.44 minutes
	system time =       3.14 seconds =       0.05 minutes
	total time  =        530 seconds =       8.83 minutes
Total time:
	user time   =     771.17 seconds =      12.85 minutes
	system time =      50.60 seconds =       0.84 minutes
	total time  =       1197 seconds =      19.95 minutes

  //>>>>>>>>>>>>>>>>>>>>>>>>>>>>>>>>>>>//
  //    Loading displacement 3 of 7    //
  //<<<<<<<<<<<<<<<<<<<<<<<<<<<<<<<<<<<//

*** tstart() called on c2-18.compute.lan
*** at Tue Feb  2 14:59:44 2021

   => Loading Basis Set <=

    Name: AUG-CC-PVTZ
    Role: ORBITAL
    Keyword: BASIS
    atoms 1-3 entry S          line   906 file /apps/gb/PSI4/1.4.0/share/psi4/basis/aug-cc-pvtz.gbs 


         ---------------------------------------------------------
                                   SCF
               by Justin Turney, Rob Parrish, Andy Simmonett
                          and Daniel G. A. Smith
                              UKS Reference
                        1 Threads,   9536 MiB Core
         ---------------------------------------------------------

  ==> Geometry <==

    Molecular point group: cs
    Full point group: Cs

    Geometry (in Angstrom), charge = 0, multiplicity = 3:

       Center              X                  Y                   Z               Mass       
    ------------   -----------------  -----------------  -----------------  -----------------
         S            0.606595726876     0.316682539825     0.000000000000    31.972071174400
         S            0.606068741015    -1.683317460175     0.000000000000    31.972071174400
         S           -1.212664467891     1.366634920350     0.000000000000    31.972071174400

  Running in cs symmetry.

  Rotational constants: A =      0.75340  B =      0.08359  C =      0.07524 [cm^-1]
  Rotational constants: A =  22586.29300  B =   2506.03684  C =   2255.75236 [MHz]
  Nuclear repulsion =  170.377527481310580

  Charge       = 0
  Multiplicity = 3
  Electrons    = 48
  Nalpha       = 25
  Nbeta        = 23

  ==> Algorithm <==

  SCF Algorithm Type is DF.
  DIIS enabled.
  MOM disabled.
  Fractional occupation disabled.
  Guess Type is SAD.
  Energy threshold   = 1.00e-08
  Density threshold  = 1.00e-08
  Integral threshold = 0.00e+00

  ==> Primary Basis <==

  Basis Set: AUG-CC-PVTZ
    Blend: AUG-CC-PVTZ
    Number of shells: 48
    Number of basis function: 150
    Number of Cartesian functions: 177
    Spherical Harmonics?: true
    Max angular momentum: 3

  ==> DFT Potential <==

   => Composite Functional: WB97M-V <= 

    wB97M-V Hyb-GGA Exchange-Correlation Functional

    N. Mardirossian and M. Head-Gordon, J. Chem. Phys. 144, 214110 (2016)

    Deriv               =              1
    GGA                 =           TRUE
    Meta                =           TRUE

    Exchange Hybrid     =           TRUE
    MP2 Hybrid          =          FALSE

   => Exchange-Correlation Functionals <=

    1.0000   wB97M-V exchange-correlation functional

   => Exact (HF) Exchange <=

    0.8500            HF,LR [omega = 0.3000]
    0.1500               HF 

   => VV10 Non-Local Parameters <=

    VV10 B              =     6.0000E+00
    VV10 C              =     1.0000E-02

   => Molecular Quadrature <=

    Radial Scheme          =       TREUTLER
    Pruning Scheme         =           NONE
    Nuclear Scheme         =       TREUTLER

    BS radius alpha        =              1
    Pruning alpha          =              1
    Radial Points          =             99
    Spherical Points       =            590
    Total Points           =         169928
    Total Blocks           =           1392
    Max Points             =            256
    Max Functions          =            150
    Weights Tolerance      =       1.00E-15

   => Loading Basis Set <=

    Name: (AUG-CC-PVTZ AUX)
    Role: JKFIT
    Keyword: DF_BASIS_SCF
    atoms 1-3 entry S          line   730 file /apps/gb/PSI4/1.4.0/share/psi4/basis/aug-cc-pvtz-jkfit.gbs 

  ==> Pre-Iterations <==

   -------------------------------------------------------
    Irrep   Nso     Nmo     Nalpha   Nbeta   Ndocc  Nsocc
   -------------------------------------------------------
     A'        99      99       0       0       0       0
     A"        51      51       0       0       0       0
   -------------------------------------------------------
    Total     150     150      25      23      23       2
   -------------------------------------------------------

  ==> Integral Setup <==

  ==> DiskDFJK: Density-Fitted J/K Matrices <==

    J tasked:                  Yes
    K tasked:                  Yes
    wK tasked:                 Yes
    Omega:               3.000E-01
    OpenMP threads:              1
    Integrals threads:           1
    Memory [MiB]:             5488
    Algorithm:                Core
    Integral Cache:           NONE
    Schwarz Cutoff:          1E-12
    Fitting Condition:       1E-10

   => Auxiliary Basis Set <=

  Basis Set: (AUG-CC-PVTZ AUX)
    Blend: AUG-CC-PVTZ-JKFIT
    Number of shells: 126
    Number of basis function: 438
    Number of Cartesian functions: 540
    Spherical Harmonics?: true
    Max angular momentum: 4

  Cached 100.0% of DFT collocation blocks in 1.625 [GiB].

  Minimum eigenvalue in the overlap matrix is 2.2923091700E-04.
  Using Symmetric Orthogonalization.

  SCF Guess: Superposition of Atomic Densities via on-the-fly atomic UHF.

  ==> Iterations <==

                           Total Energy        Delta E     RMS |[F,P]|

   @DF-UKS iter SAD: -1194.00598501560467   -1.19401e+03   0.00000e+00 
   @DF-UKS iter   1: -1194.44020209751079   -4.34217e-01   3.10123e-03 DIIS
   @DF-UKS iter   2: -1194.44444725071776   -4.24515e-03   2.73876e-03 DIIS
   @DF-UKS iter   3: -1194.49280196068639   -4.83547e-02   6.30660e-04 DIIS
   @DF-UKS iter   4: -1194.49564178411720   -2.83982e-03   1.68777e-04 DIIS
   @DF-UKS iter   5: -1194.49595820185914   -3.16418e-04   1.23869e-04 DIIS
   @DF-UKS iter   6: -1194.49620277552890   -2.44574e-04   3.80257e-05 DIIS
   @DF-UKS iter   7: -1194.49632280917285   -1.20034e-04   3.18705e-05 DIIS
   @DF-UKS iter   8: -1194.49640629997498   -8.34908e-05   3.39210e-05 DIIS
   @DF-UKS iter   9: -1194.49630467526868    1.01625e-04   3.01271e-05 DIIS
   @DF-UKS iter  10: -1194.49605189003000    2.52785e-04   1.58739e-05 DIIS
   @DF-UKS iter  11: -1194.49602988967399    2.20004e-05   8.25236e-06 DIIS
   @DF-UKS iter  12: -1194.49602822359884    1.66608e-06   3.39141e-06 DIIS
   @DF-UKS iter  13: -1194.49602868640272   -4.62804e-07   1.06983e-06 DIIS
   @DF-UKS iter  14: -1194.49602872922242   -4.28197e-08   4.80991e-07 DIIS
   @DF-UKS iter  15: -1194.49602873795311   -8.73069e-09   2.13926e-07 DIIS
   @DF-UKS iter  16: -1194.49602874078028   -2.82716e-09   1.22182e-07 DIIS
   @DF-UKS iter  17: -1194.49602874155380   -7.73525e-10   8.39492e-08 DIIS
   @DF-UKS iter  18: -1194.49602874194943   -3.95630e-10   4.47088e-08 DIIS
   @DF-UKS iter  19: -1194.49602874206175   -1.12323e-10   2.16775e-08 DIIS
   @DF-UKS iter  20: -1194.49602874210268   -4.09273e-11   9.93843e-09 DIIS
  Energy and wave function converged.


  ==> Post-Iterations <==

   @Spin Contamination Metric:   2.973356690E-02
   @S^2 Expected:                2.000000000E+00
   @S^2 Observed:                2.029733567E+00
   @S   Expected:                1.000000000E+00
   @S   Observed:                1.000000000E+00

    Orbital Energies [Eh]
    ---------------------

    Alpha Occupied:                                                       

       1Ap   -89.328148     2Ap   -89.266320     3Ap   -89.251742  
       4Ap    -8.232536     5Ap    -8.176194     6Ap    -8.160566  
       1App   -6.141152     7Ap    -6.140762     8Ap    -6.140241  
       9Ap    -6.089068    10Ap    -6.082593     2App   -6.081392  
      11Ap    -6.074922     3App   -6.066112    12Ap    -6.064766  
      13Ap    -0.980269    14Ap    -0.858003    15Ap    -0.739169  
      16Ap    -0.532332    17Ap    -0.502927     4App   -0.499135  
       5App   -0.396716    18Ap    -0.388850    19Ap    -0.377663  
       6App   -0.327371  

    Alpha Virtual:                                                        

      20Ap    -0.013457    21Ap     0.024578    22Ap     0.047443  
      23Ap     0.056803     7App    0.064690    24Ap     0.066794  
      25Ap     0.082741    26Ap     0.086009     8App    0.089442  
       9App    0.096330    27Ap     0.097884    28Ap     0.111329  
      29Ap     0.170735    10App    0.182498    30Ap     0.192845  
      11App    0.200493    31Ap     0.203088    32Ap     0.243646  
      33Ap     0.264822    34Ap     0.271263    12App    0.277840  
      13App    0.283339    35Ap     0.291109    14App    0.335687  
      36Ap     0.336907    37Ap     0.345566    38Ap     0.359209  
      15App    0.379943    39Ap     0.400101    16App    0.447151  
      40Ap     0.468301    17App    0.513585    41Ap     0.525358  
      42Ap     0.538504    43Ap     0.544524    18App    0.547447  
      44Ap     0.552622    19App    0.555468    45Ap     0.557651  
      20App    0.572281    46Ap     0.576714    21App    0.610882  
      47Ap     0.611737    48Ap     0.618547    49Ap     0.624514  
      22App    0.635224    50Ap     0.642316    51Ap     0.654135  
      52Ap     0.675899    23App    0.678329    53Ap     0.719082  
      24App    0.725456    25App    0.733474    54Ap     0.781336  
      26App    0.786392    55Ap     0.788388    27App    0.801719  
      56Ap     0.816143    57Ap     0.836651    58Ap     0.845794  
      59Ap     0.921411    28App    0.936549    29App    0.973077  
      60Ap     1.002558    30App    1.033837    61Ap     1.041402  
      31App    1.110920    62Ap     1.111926    63Ap     1.120502  
      64Ap     1.152413    65Ap     1.171976    32App    1.196984  
      33App    1.203168    66Ap     1.292149    67Ap     1.305840  
      68Ap     1.368076    69Ap     1.471411    70Ap     1.748954  
      34App    1.764635    35App    1.780566    71Ap     1.793891  
      72Ap     1.823625    36App    1.832113    37App    1.834644  
      73Ap     1.848153    74Ap     1.876728    38App    1.911114  
      75Ap     1.922772    76Ap     1.944430    77Ap     1.963439  
      39App    1.974629    78Ap     1.979820    40App    1.983933  
      41App    2.004796    79Ap     2.010326    42App    2.031771  
      80Ap     2.043904    43App    2.055955    81Ap     2.084662  
      82Ap     2.101837    44App    2.119892    83Ap     2.128760  
      45App    2.137366    84Ap     2.142657    46App    2.212743  
      85Ap     2.217656    47App    2.228981    86Ap     2.234796  
      87Ap     2.249138    48App    2.261474    49App    2.307387  
      88Ap     2.343439    89Ap     2.358648    90Ap     2.414545  
      91Ap     2.427904    92Ap     2.456960    50App    2.497581  
      93Ap     2.514884    51App    2.561945    94Ap     2.664096  
      95Ap     3.552423    96Ap     3.662801    97Ap     4.738913  
      98Ap     5.152622    99Ap     5.620079  

    Beta Occupied:                                                        

       1Ap   -89.324217     2Ap   -89.261485     3Ap   -89.247531  
       4Ap    -8.228488     5Ap    -8.171344     6Ap    -8.156365  
       7Ap    -6.138560     8Ap    -6.135385     1App   -6.129309  
       9Ap    -6.082256    10Ap    -6.074282     2App   -6.072541  
      11Ap    -6.068254    12Ap    -6.058895     3App   -6.057725  
      13Ap    -0.961389    14Ap    -0.832527    15Ap    -0.695256  
      16Ap    -0.502125    17Ap    -0.481828     4App   -0.460566  
       5App   -0.342556    18Ap    -0.333693  

    Beta Virtual:                                                         

      19Ap    -0.144936     6App   -0.088266    20Ap    -0.001585  
      21Ap     0.031006    22Ap     0.049300    23Ap     0.056885  
       7App    0.065530    24Ap     0.075083    25Ap     0.086330  
       8App    0.089484    26Ap     0.092675     9App    0.097090  
      27Ap     0.100178    28Ap     0.115266    29Ap     0.171577  
      10App    0.188136    30Ap     0.194701    31Ap     0.207099  
      11App    0.214039    32Ap     0.250798    33Ap     0.274082  
      34Ap     0.277959    12App    0.289783    13App    0.290247  
      35Ap     0.296212    36Ap     0.339520    14App    0.340250  
      37Ap     0.348701    38Ap     0.361938    15App    0.383454  
      39Ap     0.405449    16App    0.455449    40Ap     0.471951  
      17App    0.522513    41Ap     0.529244    42Ap     0.545723  
      43Ap     0.551508    44Ap     0.558253    18App    0.558686  
      45Ap     0.561841    19App    0.565794    20App    0.577710  
      46Ap     0.584421    47Ap     0.615408    21App    0.631293  
      48Ap     0.631775    49Ap     0.639409    22App    0.648998  
      50Ap     0.656093    51Ap     0.669122    52Ap     0.689016  
      23App    0.690137    53Ap     0.732259    24App    0.734983  
      25App    0.752052    54Ap     0.787072    26App    0.791320  
      55Ap     0.794176    27App    0.809149    56Ap     0.830380  
      57Ap     0.848124    58Ap     0.851530    59Ap     0.927534  
      28App    0.940451    29App    0.979397    60Ap     1.006130  
      30App    1.039055    61Ap     1.045121    62Ap     1.115411  
      31App    1.115764    63Ap     1.125370    64Ap     1.158317  
      65Ap     1.180111    32App    1.203672    33App    1.211154  
      66Ap     1.308743    67Ap     1.313362    68Ap     1.389252  
      69Ap     1.499589    70Ap     1.782001    34App    1.793538  
      35App    1.816580    71Ap     1.826337    36App    1.847721  
      72Ap     1.854691    73Ap     1.866217    37App    1.870099  
      74Ap     1.895440    75Ap     1.943138    38App    1.945027  
      76Ap     1.967663    77Ap     1.980917    39App    1.996464  
      78Ap     1.998163    40App    2.010580    41App    2.023071  
      79Ap     2.027312    42App    2.057404    80Ap     2.062766  
      43App    2.091977    81Ap     2.110492    82Ap     2.131092  
      44App    2.154868    83Ap     2.159248    45App    2.169770  
      84Ap     2.174771    46App    2.233451    85Ap     2.243340  
      47App    2.252239    86Ap     2.256054    87Ap     2.271792  
      48App    2.284736    49App    2.332699    88Ap     2.365778  
      89Ap     2.377178    90Ap     2.428432    91Ap     2.443459  
      92Ap     2.476080    50App    2.519425    93Ap     2.529941  
      51App    2.585022    94Ap     2.682330    95Ap     3.564999  
      96Ap     3.671200    97Ap     4.756052    98Ap     5.168601  
      99Ap     5.634306  

    Final Occupation by Irrep:
             Ap   App 
    DOCC [    18,    5 ]
    SOCC [     1,    1 ]

  @DF-UKS Final Energy: -1194.49602874210268

   => Energetics <=

    Nuclear Repulsion Energy =            170.3775274813105796
    One-Electron Energy =               -1987.8998214844143604
    Two-Electron Energy =                 682.1468431694312358
    DFT Exchange-Correlation Energy =     -59.3189847266539942
    Empirical Dispersion Energy =           0.0000000000000000
    VV10 Nonlocal Energy =                  0.1984068182239112
    Total Energy =                      -1194.4960287421024532

  UHF NO Occupations:
  HONO-2 :   18 Ap 1.9887006
  HONO-1 :    6App 1.0000000
  HONO-0 :   19 Ap 1.0000000
  LUNO+0 :   20 Ap 0.0112994
  LUNO+1 :    7App 0.0018279
  LUNO+2 :    8App 0.0008066
  LUNO+3 :   21 Ap 0.0005861


Computation Completed


Properties will be evaluated at   0.000000,   0.000000,   0.000000 [a0]

Properties computed using the SCF density matrix

  Nuclear Dipole Moment: [e a0]
     X:     0.0000      Y:    -0.0000      Z:     0.0000

  Electronic Dipole Moment: [e a0]
     X:     0.1776      Y:    -0.1703      Z:     0.0000

  Dipole Moment: [e a0]
     X:     0.1776      Y:    -0.1703      Z:     0.0000     Total:     0.2461

  Dipole Moment: [D]
     X:     0.4515      Y:    -0.4328      Z:     0.0000     Total:     0.6254


*** tstop() called on c2-18.compute.lan at Tue Feb  2 15:07:20 2021
Module time:
	user time   =     384.87 seconds =       6.41 minutes
	system time =       1.20 seconds =       0.02 minutes
	total time  =        456 seconds =       7.60 minutes
Total time:
	user time   =    1156.05 seconds =      19.27 minutes
	system time =      51.81 seconds =       0.86 minutes
	total time  =       1653 seconds =      27.55 minutes

  //>>>>>>>>>>>>>>>>>>>>>>>>>>>>>>>>>>>//
  //    Loading displacement 4 of 7    //
  //<<<<<<<<<<<<<<<<<<<<<<<<<<<<<<<<<<<//

*** tstart() called on c2-18.compute.lan
*** at Tue Feb  2 15:07:20 2021

   => Loading Basis Set <=

    Name: AUG-CC-PVTZ
    Role: ORBITAL
    Keyword: BASIS
    atoms 1-3 entry S          line   906 file /apps/gb/PSI4/1.4.0/share/psi4/basis/aug-cc-pvtz.gbs 


         ---------------------------------------------------------
                                   SCF
               by Justin Turney, Rob Parrish, Andy Simmonett
                          and Daniel G. A. Smith
                              UKS Reference
                        1 Threads,   9536 MiB Core
         ---------------------------------------------------------

  ==> Geometry <==

    Molecular point group: cs
    Full point group: Cs

    Geometry (in Angstrom), charge = 0, multiplicity = 3:

       Center              X                  Y                   Z               Mass       
    ------------   -----------------  -----------------  -----------------  -----------------
         S            0.606217782649     0.316300280266     0.000000000000    31.972071174400
         S            0.606298365760    -1.683102090053     0.000000000000    31.972071174400
         S           -1.212516148409     1.366801809787     0.000000000000    31.972071174400

  Running in cs symmetry.

  Rotational constants: A =      0.75455  B =      0.08359  C =      0.07526 [cm^-1]
  Rotational constants: A =  22620.87925  B =   2506.02908  C =   2256.09058 [MHz]
  Nuclear repulsion =  170.403339179731688

  Charge       = 0
  Multiplicity = 3
  Electrons    = 48
  Nalpha       = 25
  Nbeta        = 23

  ==> Algorithm <==

  SCF Algorithm Type is DF.
  DIIS enabled.
  MOM disabled.
  Fractional occupation disabled.
  Guess Type is SAD.
  Energy threshold   = 1.00e-08
  Density threshold  = 1.00e-08
  Integral threshold = 0.00e+00

  ==> Primary Basis <==

  Basis Set: AUG-CC-PVTZ
    Blend: AUG-CC-PVTZ
    Number of shells: 48
    Number of basis function: 150
    Number of Cartesian functions: 177
    Spherical Harmonics?: true
    Max angular momentum: 3

  ==> DFT Potential <==

   => Composite Functional: WB97M-V <= 

    wB97M-V Hyb-GGA Exchange-Correlation Functional

    N. Mardirossian and M. Head-Gordon, J. Chem. Phys. 144, 214110 (2016)

    Deriv               =              1
    GGA                 =           TRUE
    Meta                =           TRUE

    Exchange Hybrid     =           TRUE
    MP2 Hybrid          =          FALSE

   => Exchange-Correlation Functionals <=

    1.0000   wB97M-V exchange-correlation functional

   => Exact (HF) Exchange <=

    0.8500            HF,LR [omega = 0.3000]
    0.1500               HF 

   => VV10 Non-Local Parameters <=

    VV10 B              =     6.0000E+00
    VV10 C              =     1.0000E-02

   => Molecular Quadrature <=

    Radial Scheme          =       TREUTLER
    Pruning Scheme         =           NONE
    Nuclear Scheme         =       TREUTLER

    BS radius alpha        =              1
    Pruning alpha          =              1
    Radial Points          =             99
    Spherical Points       =            590
    Total Points           =         169929
    Total Blocks           =           1388
    Max Points             =            256
    Max Functions          =            150
    Weights Tolerance      =       1.00E-15

   => Loading Basis Set <=

    Name: (AUG-CC-PVTZ AUX)
    Role: JKFIT
    Keyword: DF_BASIS_SCF
    atoms 1-3 entry S          line   730 file /apps/gb/PSI4/1.4.0/share/psi4/basis/aug-cc-pvtz-jkfit.gbs 

  ==> Pre-Iterations <==

   -------------------------------------------------------
    Irrep   Nso     Nmo     Nalpha   Nbeta   Ndocc  Nsocc
   -------------------------------------------------------
     A'        99      99       0       0       0       0
     A"        51      51       0       0       0       0
   -------------------------------------------------------
    Total     150     150      25      23      23       2
   -------------------------------------------------------

  ==> Integral Setup <==

  ==> DiskDFJK: Density-Fitted J/K Matrices <==

    J tasked:                  Yes
    K tasked:                  Yes
    wK tasked:                 Yes
    Omega:               3.000E-01
    OpenMP threads:              1
    Integrals threads:           1
    Memory [MiB]:             5488
    Algorithm:                Core
    Integral Cache:           NONE
    Schwarz Cutoff:          1E-12
    Fitting Condition:       1E-10

   => Auxiliary Basis Set <=

  Basis Set: (AUG-CC-PVTZ AUX)
    Blend: AUG-CC-PVTZ-JKFIT
    Number of shells: 126
    Number of basis function: 438
    Number of Cartesian functions: 540
    Spherical Harmonics?: true
    Max angular momentum: 4

  Cached 100.0% of DFT collocation blocks in 1.625 [GiB].

  Minimum eigenvalue in the overlap matrix is 2.2887036555E-04.
  Using Symmetric Orthogonalization.

  SCF Guess: Superposition of Atomic Densities via on-the-fly atomic UHF.

  ==> Iterations <==

                           Total Energy        Delta E     RMS |[F,P]|

   @DF-UKS iter SAD: -1194.00692596103227   -1.19401e+03   0.00000e+00 
   @DF-UKS iter   1: -1194.44025975676936   -4.33334e-01   3.10120e-03 DIIS
   @DF-UKS iter   2: -1194.44452238890995   -4.26263e-03   2.73818e-03 DIIS
   @DF-UKS iter   3: -1194.49285182394397   -4.83294e-02   6.30784e-04 DIIS
   @DF-UKS iter   4: -1194.49569293134118   -2.84111e-03   1.68906e-04 DIIS
   @DF-UKS iter   5: -1194.49601001210067   -3.17081e-04   1.23792e-04 DIIS
   @DF-UKS iter   6: -1194.49625491315419   -2.44901e-04   3.81147e-05 DIIS
   @DF-UKS iter   7: -1194.49637570761615   -1.20794e-04   3.20046e-05 DIIS
   @DF-UKS iter   8: -1194.49645969270136   -8.39851e-05   3.40582e-05 DIIS
   @DF-UKS iter   9: -1194.49635620272784    1.03490e-04   3.02228e-05 DIIS
   @DF-UKS iter  10: -1194.49610084595156    2.55357e-04   1.59574e-05 DIIS
   @DF-UKS iter  11: -1194.49607870509749    2.21409e-05   8.30440e-06 DIIS
   @DF-UKS iter  12: -1194.49607698108343    1.72401e-06   3.41869e-06 DIIS
   @DF-UKS iter  13: -1194.49607744825835   -4.67175e-07   1.07957e-06 DIIS
   @DF-UKS iter  14: -1194.49607749142979   -4.31714e-08   4.84198e-07 DIIS
   @DF-UKS iter  15: -1194.49607750022346   -8.79368e-09   2.14714e-07 DIIS
   @DF-UKS iter  16: -1194.49607750305677   -2.83330e-09   1.24170e-07 DIIS
   @DF-UKS iter  17: -1194.49607750383598   -7.79210e-10   8.49149e-08 DIIS
   @DF-UKS iter  18: -1194.49607750424229   -4.06317e-10   4.49546e-08 DIIS
   @DF-UKS iter  19: -1194.49607750435803   -1.15733e-10   2.17954e-08 DIIS
   @DF-UKS iter  20: -1194.49607750439895   -4.09273e-11   9.97430e-09 DIIS
  Energy and wave function converged.


  ==> Post-Iterations <==

   @Spin Contamination Metric:   2.970623480E-02
   @S^2 Expected:                2.000000000E+00
   @S^2 Observed:                2.029706235E+00
   @S   Expected:                1.000000000E+00
   @S   Observed:                1.000000000E+00

    Orbital Energies [Eh]
    ---------------------

    Alpha Occupied:                                                       

       1Ap   -89.328130     2Ap   -89.266339     3Ap   -89.251690  
       4Ap    -8.232528     5Ap    -8.176223     6Ap    -8.160517  
       1App   -6.141143     7Ap    -6.140754     8Ap    -6.140233  
       9Ap    -6.089095    10Ap    -6.082628     2App   -6.081419  
      11Ap    -6.074874     3App   -6.066066    12Ap    -6.064711  
      13Ap    -0.980394    14Ap    -0.858052    15Ap    -0.739116  
      16Ap    -0.532391    17Ap    -0.502983     4App   -0.499202  
       5App   -0.396729    18Ap    -0.388845    19Ap    -0.377634  
       6App   -0.327319  

    Alpha Virtual:                                                        

      20Ap    -0.013418    21Ap     0.024639    22Ap     0.047439  
      23Ap     0.056806     7App    0.064685    24Ap     0.066879  
      25Ap     0.082765    26Ap     0.086004     8App    0.089441  
       9App    0.096341    27Ap     0.097889    28Ap     0.111331  
      29Ap     0.170729    10App    0.182476    30Ap     0.192855  
      11App    0.200509    31Ap     0.203055    32Ap     0.243635  
      33Ap     0.264892    34Ap     0.271254    12App    0.277896  
      13App    0.283311    35Ap     0.291140    14App    0.335702  
      36Ap     0.336901    37Ap     0.345592    38Ap     0.359249  
      15App    0.379980    39Ap     0.400120    16App    0.447131  
      40Ap     0.468261    17App    0.513545    41Ap     0.525366  
      42Ap     0.538453    43Ap     0.544513    18App    0.547435  
      44Ap     0.552623    19App    0.555530    45Ap     0.557673  
      20App    0.572308    46Ap     0.576676    21App    0.610879  
      47Ap     0.611768    48Ap     0.618563    49Ap     0.624545  
      22App    0.635217    50Ap     0.642302    51Ap     0.654173  
      52Ap     0.675976    23App    0.678338    53Ap     0.719093  
      24App    0.725440    25App    0.733586    54Ap     0.781346  
      26App    0.786380    55Ap     0.788444    27App    0.801819  
      56Ap     0.816285    57Ap     0.836819    58Ap     0.845843  
      59Ap     0.921485    28App    0.936515    29App    0.973151  
      60Ap     1.002613    30App    1.033985    61Ap     1.041574  
      31App    1.110984    62Ap     1.111963    63Ap     1.120615  
      64Ap     1.152528    65Ap     1.172031    32App    1.197065  
      33App    1.203321    66Ap     1.292338    67Ap     1.306006  
      68Ap     1.368153    69Ap     1.471444    70Ap     1.748908  
      34App    1.764607    35App    1.780582    71Ap     1.793869  
      72Ap     1.823671    36App    1.832078    37App    1.834678  
      73Ap     1.848104    74Ap     1.876714    38App    1.911054  
      75Ap     1.922785    76Ap     1.944378    77Ap     1.963388  
      39App    1.974595    78Ap     1.979801    40App    1.984025  
      41App    2.004831    79Ap     2.010250    42App    2.031682  
      80Ap     2.043880    43App    2.055954    81Ap     2.084562  
      82Ap     2.101872    44App    2.119886    83Ap     2.128768  
      45App    2.137428    84Ap     2.142678    46App    2.212726  
      85Ap     2.217697    47App    2.229091    86Ap     2.234859  
      87Ap     2.249293    48App    2.261688    49App    2.307685  
      88Ap     2.343608    89Ap     2.358901    90Ap     2.414750  
      91Ap     2.428106    92Ap     2.457063    50App    2.497704  
      93Ap     2.515771    51App    2.562353    94Ap     2.664597  
      95Ap     3.552630    96Ap     3.663215    97Ap     4.740107  
      98Ap     5.153024    99Ap     5.620160  

    Beta Occupied:                                                        

       1Ap   -89.324198     2Ap   -89.261502     3Ap   -89.247480  
       4Ap    -8.228479     5Ap    -8.171372     6Ap    -8.156317  
       7Ap    -6.138550     8Ap    -6.135373     1App   -6.129299  
       9Ap    -6.082280    10Ap    -6.074312     2App   -6.072569  
      11Ap    -6.068207    12Ap    -6.058847     3App   -6.057679  
      13Ap    -0.961513    14Ap    -0.832585    15Ap    -0.695195  
      16Ap    -0.502175    17Ap    -0.481861     4App   -0.460641  
       5App   -0.342573    18Ap    -0.333743  

    Beta Virtual:                                                         

      19Ap    -0.144890     6App   -0.088208    20Ap    -0.001538  
      21Ap     0.031029    22Ap     0.049295    23Ap     0.056889  
       7App    0.065524    24Ap     0.075131    25Ap     0.086324  
       8App    0.089480    26Ap     0.092747     9App    0.097100  
      27Ap     0.100186    28Ap     0.115289    29Ap     0.171575  
      10App    0.188116    30Ap     0.194712    31Ap     0.207064  
      11App    0.214058    32Ap     0.250785    33Ap     0.274077  
      34Ap     0.278023    12App    0.289819    13App    0.290237  
      35Ap     0.296244    36Ap     0.339508    14App    0.340263  
      37Ap     0.348730    38Ap     0.361972    15App    0.383492  
      39Ap     0.405470    16App    0.455427    40Ap     0.471916  
      17App    0.522473    41Ap     0.529260    42Ap     0.545666  
      43Ap     0.551488    44Ap     0.558257    18App    0.558677  
      45Ap     0.561862    19App    0.565852    20App    0.577735  
      46Ap     0.584383    47Ap     0.615434    21App    0.631296  
      48Ap     0.631778    49Ap     0.639440    22App    0.648982  
      50Ap     0.656075    51Ap     0.669165    52Ap     0.689110  
      23App    0.690147    53Ap     0.732264    24App    0.734967  
      25App    0.752168    54Ap     0.787078    26App    0.791305  
      55Ap     0.794235    27App    0.809250    56Ap     0.830511  
      57Ap     0.848267    58Ap     0.851615    59Ap     0.927605  
      28App    0.940416    29App    0.979471    60Ap     1.006186  
      30App    1.039205    61Ap     1.045296    62Ap     1.115414  
      31App    1.115831    63Ap     1.125515    64Ap     1.158437  
      65Ap     1.180172    32App    1.203758    33App    1.211312  
      66Ap     1.308938    67Ap     1.313539    68Ap     1.389328  
      69Ap     1.499617    70Ap     1.781964    34App    1.793517  
      35App    1.816581    71Ap     1.826308    36App    1.847680  
      72Ap     1.854679    73Ap     1.866203    37App    1.870117  
      74Ap     1.895470    75Ap     1.943108    38App    1.944970  
      76Ap     1.967626    77Ap     1.980895    39App    1.996474  
      78Ap     1.998126    40App    2.010664    41App    2.023100  
      79Ap     2.027247    42App    2.057301    80Ap     2.062736  
      43App    2.091994    81Ap     2.110386    82Ap     2.131132  
      44App    2.154872    83Ap     2.159246    45App    2.169797  
      84Ap     2.174759    46App    2.233436    85Ap     2.243371  
      47App    2.252347    86Ap     2.256113    87Ap     2.271963  
      48App    2.284951    49App    2.332997    88Ap     2.365908  
      89Ap     2.377438    90Ap     2.428672    91Ap     2.443654  
      92Ap     2.476169    50App    2.519550    93Ap     2.530853  
      51App    2.585435    94Ap     2.682842    95Ap     3.565216  
      96Ap     3.671612    97Ap     4.757240    98Ap     5.169003  
      99Ap     5.634389  

    Final Occupation by Irrep:
             Ap   App 
    DOCC [    18,    5 ]
    SOCC [     1,    1 ]

  @DF-UKS Final Energy: -1194.49607750439895

   => Energetics <=

    Nuclear Repulsion Energy =            170.4033391797316881
    One-Electron Energy =               -1987.9511826021098386
    Two-Electron Energy =                 682.1725538887369567
    DFT Exchange-Correlation Energy =     -59.3191937997909520
    Empirical Dispersion Energy =           0.0000000000000000
    VV10 Nonlocal Energy =                  0.1984058290333689
    Total Energy =                      -1194.4960775043989543

  UHF NO Occupations:
  HONO-2 :   18 Ap 1.9887149
  HONO-1 :    6App 1.0000000
  HONO-0 :   19 Ap 1.0000000
  LUNO+0 :   20 Ap 0.0112851
  LUNO+1 :    7App 0.0018285
  LUNO+2 :    8App 0.0008062
  LUNO+3 :   21 Ap 0.0005864


Computation Completed


Properties will be evaluated at   0.000000,   0.000000,   0.000000 [a0]

Properties computed using the SCF density matrix

  Nuclear Dipole Moment: [e a0]
     X:     0.0000      Y:    -0.0000      Z:     0.0000

  Electronic Dipole Moment: [e a0]
     X:     0.1782      Y:    -0.1713      Z:     0.0000

  Dipole Moment: [e a0]
     X:     0.1782      Y:    -0.1713      Z:     0.0000     Total:     0.2472

  Dipole Moment: [D]
     X:     0.4528      Y:    -0.4354      Z:     0.0000     Total:     0.6282


*** tstop() called on c2-18.compute.lan at Tue Feb  2 15:15:10 2021
Module time:
	user time   =     387.47 seconds =       6.46 minutes
	system time =       1.67 seconds =       0.03 minutes
	total time  =        470 seconds =       7.83 minutes
Total time:
	user time   =    1543.53 seconds =      25.73 minutes
	system time =      53.48 seconds =       0.89 minutes
	total time  =       2123 seconds =      35.38 minutes

  //>>>>>>>>>>>>>>>>>>>>>>>>>>>>>>>>>>>//
  //    Loading displacement 5 of 7    //
  //<<<<<<<<<<<<<<<<<<<<<<<<<<<<<<<<<<<//

*** tstart() called on c2-18.compute.lan
*** at Tue Feb  2 15:15:10 2021

   => Loading Basis Set <=

    Name: AUG-CC-PVTZ
    Role: ORBITAL
    Keyword: BASIS
    atoms 1-3 entry S          line   906 file /apps/gb/PSI4/1.4.0/share/psi4/basis/aug-cc-pvtz.gbs 


         ---------------------------------------------------------
                                   SCF
               by Justin Turney, Rob Parrish, Andy Simmonett
                          and Daniel G. A. Smith
                              UKS Reference
                        1 Threads,   9536 MiB Core
         ---------------------------------------------------------

  ==> Geometry <==

    Molecular point group: cs
    Full point group: Cs

    Geometry (in Angstrom), charge = 0, multiplicity = 3:

       Center              X                  Y                   Z               Mass       
    ------------   -----------------  -----------------  -----------------  -----------------
         S            0.606217782649     0.317033053067     0.000000000000    31.972071174400
         S            0.606137199538    -1.683564576614     0.000000000000    31.972071174400
         S           -1.212354982187     1.366531523547     0.000000000000    31.972071174400

  Running in cs symmetry.

  Rotational constants: A =      0.75370  B =      0.08359  C =      0.07525 [cm^-1]
  Rotational constants: A =  22595.43469  B =   2506.06514  C =   2255.86644 [MHz]
  Nuclear repulsion =  170.382552772002498

  Charge       = 0
  Multiplicity = 3
  Electrons    = 48
  Nalpha       = 25
  Nbeta        = 23

  ==> Algorithm <==

  SCF Algorithm Type is DF.
  DIIS enabled.
  MOM disabled.
  Fractional occupation disabled.
  Guess Type is SAD.
  Energy threshold   = 1.00e-08
  Density threshold  = 1.00e-08
  Integral threshold = 0.00e+00

  ==> Primary Basis <==

  Basis Set: AUG-CC-PVTZ
    Blend: AUG-CC-PVTZ
    Number of shells: 48
    Number of basis function: 150
    Number of Cartesian functions: 177
    Spherical Harmonics?: true
    Max angular momentum: 3

  ==> DFT Potential <==

   => Composite Functional: WB97M-V <= 

    wB97M-V Hyb-GGA Exchange-Correlation Functional

    N. Mardirossian and M. Head-Gordon, J. Chem. Phys. 144, 214110 (2016)

    Deriv               =              1
    GGA                 =           TRUE
    Meta                =           TRUE

    Exchange Hybrid     =           TRUE
    MP2 Hybrid          =          FALSE

   => Exchange-Correlation Functionals <=

    1.0000   wB97M-V exchange-correlation functional

   => Exact (HF) Exchange <=

    0.8500            HF,LR [omega = 0.3000]
    0.1500               HF 

   => VV10 Non-Local Parameters <=

    VV10 B              =     6.0000E+00
    VV10 C              =     1.0000E-02

   => Molecular Quadrature <=

    Radial Scheme          =       TREUTLER
    Pruning Scheme         =           NONE
    Nuclear Scheme         =       TREUTLER

    BS radius alpha        =              1
    Pruning alpha          =              1
    Radial Points          =             99
    Spherical Points       =            590
    Total Points           =         169934
    Total Blocks           =           1391
    Max Points             =            256
    Max Functions          =            150
    Weights Tolerance      =       1.00E-15

   => Loading Basis Set <=

    Name: (AUG-CC-PVTZ AUX)
    Role: JKFIT
    Keyword: DF_BASIS_SCF
    atoms 1-3 entry S          line   730 file /apps/gb/PSI4/1.4.0/share/psi4/basis/aug-cc-pvtz-jkfit.gbs 

  ==> Pre-Iterations <==

   -------------------------------------------------------
    Irrep   Nso     Nmo     Nalpha   Nbeta   Ndocc  Nsocc
   -------------------------------------------------------
     A'        99      99       0       0       0       0
     A"        51      51       0       0       0       0
   -------------------------------------------------------
    Total     150     150      25      23      23       2
   -------------------------------------------------------

  ==> Integral Setup <==

  ==> DiskDFJK: Density-Fitted J/K Matrices <==

    J tasked:                  Yes
    K tasked:                  Yes
    wK tasked:                 Yes
    Omega:               3.000E-01
    OpenMP threads:              1
    Integrals threads:           1
    Memory [MiB]:             5488
    Algorithm:                Core
    Integral Cache:           NONE
    Schwarz Cutoff:          1E-12
    Fitting Condition:       1E-10

   => Auxiliary Basis Set <=

  Basis Set: (AUG-CC-PVTZ AUX)
    Blend: AUG-CC-PVTZ-JKFIT
    Number of shells: 126
    Number of basis function: 438
    Number of Cartesian functions: 540
    Spherical Harmonics?: true
    Max angular momentum: 4

  Cached 100.0% of DFT collocation blocks in 1.625 [GiB].

  Minimum eigenvalue in the overlap matrix is 2.2943965318E-04.
  Using Symmetric Orthogonalization.

  SCF Guess: Superposition of Atomic Densities via on-the-fly atomic UHF.

  ==> Iterations <==

                           Total Energy        Delta E     RMS |[F,P]|

   @DF-UKS iter SAD: -1194.00608498421479   -1.19401e+03   0.00000e+00 
   @DF-UKS iter   1: -1194.44028956601051   -4.34205e-01   3.10058e-03 DIIS
   @DF-UKS iter   2: -1194.44462752271602   -4.33796e-03   2.73594e-03 DIIS
   @DF-UKS iter   3: -1194.49285442804694   -4.82269e-02   6.29545e-04 DIIS
   @DF-UKS iter   4: -1194.49568303132082   -2.82860e-03   1.67418e-04 DIIS
   @DF-UKS iter   5: -1194.49599512426357   -3.12093e-04   1.23857e-04 DIIS
   @DF-UKS iter   6: -1194.49623728128472   -2.42157e-04   3.77606e-05 DIIS
   @DF-UKS iter   7: -1194.49635485350200   -1.17572e-04   3.14865e-05 DIIS
   @DF-UKS iter   8: -1194.49643693899111   -8.20855e-05   3.35032e-05 DIIS
   @DF-UKS iter   9: -1194.49634065932787    9.62797e-05   2.98743e-05 DIIS
   @DF-UKS iter  10: -1194.49609199031261    2.48669e-04   1.57272e-05 DIIS
   @DF-UKS iter  11: -1194.49606987265611    2.21177e-05   8.18102e-06 DIIS
   @DF-UKS iter  12: -1194.49606818264374    1.69001e-06   3.34840e-06 DIIS
   @DF-UKS iter  13: -1194.49606863503004   -4.52386e-07   1.05338e-06 DIIS
   @DF-UKS iter  14: -1194.49606867736338   -4.23333e-08   4.74951e-07 DIIS
   @DF-UKS iter  15: -1194.49606868597994   -8.61655e-09   2.12791e-07 DIIS
   @DF-UKS iter  16: -1194.49606868879573   -2.81580e-09   1.17872e-07 DIIS
   @DF-UKS iter  17: -1194.49606868956380   -7.68068e-10   8.14932e-08 DIIS
   @DF-UKS iter  18: -1194.49606868993624   -3.72438e-10   4.41361e-08 DIIS
   @DF-UKS iter  19: -1194.49606869004583   -1.09594e-10   2.14468e-08 DIIS
   @DF-UKS iter  20: -1194.49606869007812   -3.22871e-11   9.76963e-09 DIIS
  Energy and wave function converged.


  ==> Post-Iterations <==

   @Spin Contamination Metric:   2.965106645E-02
   @S^2 Expected:                2.000000000E+00
   @S^2 Observed:                2.029651066E+00
   @S   Expected:                1.000000000E+00
   @S   Observed:                1.000000000E+00

    Orbital Energies [Eh]
    ---------------------

    Alpha Occupied:                                                       

       1Ap   -89.328159     2Ap   -89.266214     3Ap   -89.251841  
       4Ap    -8.232544     5Ap    -8.176080     6Ap    -8.160671  
       1App   -6.141159     7Ap    -6.140771     8Ap    -6.140249  
       9Ap    -6.088963    10Ap    -6.082467     2App   -6.081281  
      11Ap    -6.075015     3App   -6.066215    12Ap    -6.064888  
      13Ap    -0.980220    14Ap    -0.858072    15Ap    -0.739156  
      16Ap    -0.532329    17Ap    -0.502901     4App   -0.499112  
       5App   -0.396744    18Ap    -0.388801    19Ap    -0.377750  
       6App   -0.327363  

    Alpha Virtual:                                                        

      20Ap    -0.013409    21Ap     0.024582    22Ap     0.047457  
      23Ap     0.056802     7App    0.064696    24Ap     0.066776  
      25Ap     0.082752    26Ap     0.086006     8App    0.089438  
       9App    0.096334    27Ap     0.097884    28Ap     0.111322  
      29Ap     0.170739    10App    0.182512    30Ap     0.192847  
      11App    0.200487    31Ap     0.203088    32Ap     0.243645  
      33Ap     0.264841    34Ap     0.271270    12App    0.277856  
      13App    0.283330    35Ap     0.291107    14App    0.335693  
      36Ap     0.336917    37Ap     0.345574    38Ap     0.359203  
      15App    0.379955    39Ap     0.400108    16App    0.447162  
      40Ap     0.468304    17App    0.513573    41Ap     0.525375  
      42Ap     0.538544    43Ap     0.544487    18App    0.547455  
      44Ap     0.552659    19App    0.555491    45Ap     0.557632  
      20App    0.572292    46Ap     0.576706    21App    0.610919  
      47Ap     0.611758    48Ap     0.618566    49Ap     0.624490  
      22App    0.635164    50Ap     0.642303    51Ap     0.654143  
      52Ap     0.675885    23App    0.678334    53Ap     0.719094  
      24App    0.725459    25App    0.733489    54Ap     0.781382  
      26App    0.786394    55Ap     0.788352    27App    0.801728  
      56Ap     0.816311    57Ap     0.836570    58Ap     0.845771  
      59Ap     0.921430    28App    0.936540    29App    0.973114  
      60Ap     1.002605    30App    1.033868    61Ap     1.041420  
      31App    1.110945    62Ap     1.111999    63Ap     1.120465  
      64Ap     1.152460    65Ap     1.171950    32App    1.197002  
      33App    1.203201    66Ap     1.292228    67Ap     1.305882  
      68Ap     1.368093    69Ap     1.471450    70Ap     1.748962  
      34App    1.764684    35App    1.780595    71Ap     1.793917  
      72Ap     1.823658    36App    1.832157    37App    1.834677  
      73Ap     1.848330    74Ap     1.876538    38App    1.911179  
      75Ap     1.922871    76Ap     1.944458    77Ap     1.963421  
      39App    1.974601    78Ap     1.979721    40App    1.983796  
      41App    2.004760    79Ap     2.010259    42App    2.031792  
      80Ap     2.043847    43App    2.055941    81Ap     2.084660  
      82Ap     2.101865    44App    2.119982    83Ap     2.128741  
      45App    2.137270    84Ap     2.142599    46App    2.212727  
      85Ap     2.217706    47App    2.229248    86Ap     2.234919  
      87Ap     2.249184    48App    2.261293    49App    2.307340  
      88Ap     2.343618    89Ap     2.359367    90Ap     2.414542  
      91Ap     2.427862    92Ap     2.457002    50App    2.498062  
      93Ap     2.514064    51App    2.561595    94Ap     2.664139  
      95Ap     3.553396    96Ap     3.662607    97Ap     4.739240  
      98Ap     5.152482    99Ap     5.619795  

    Beta Occupied:                                                        

       1Ap   -89.324228     2Ap   -89.261383     3Ap   -89.247625  
       4Ap    -8.228495     5Ap    -8.171235     6Ap    -8.156465  
       7Ap    -6.138567     8Ap    -6.135392     1App   -6.129316  
       9Ap    -6.082153    10Ap    -6.074171     2App   -6.072434  
      11Ap    -6.068347    12Ap    -6.058999     3App   -6.057825  
      13Ap    -0.961342    14Ap    -0.832598    15Ap    -0.695240  
      16Ap    -0.502111    17Ap    -0.481834     4App   -0.460545  
       5App   -0.342588    18Ap    -0.333690  

    Beta Virtual:                                                         

      19Ap    -0.144940     6App   -0.088253    20Ap    -0.001571  
      21Ap     0.031017    22Ap     0.049312    23Ap     0.056884  
       7App    0.065536    24Ap     0.075067    25Ap     0.086329  
       8App    0.089478    26Ap     0.092696     9App    0.097093  
      27Ap     0.100173    28Ap     0.115262    29Ap     0.171581  
      10App    0.188145    30Ap     0.194703    31Ap     0.207097  
      11App    0.214036    32Ap     0.250791    33Ap     0.274107  
      34Ap     0.277965    12App    0.289797    13App    0.290241  
      35Ap     0.296214    36Ap     0.339529    14App    0.340257  
      37Ap     0.348708    38Ap     0.361933    15App    0.383467  
      39Ap     0.405456    16App    0.455462    40Ap     0.471955  
      17App    0.522497    41Ap     0.529263    42Ap     0.545761  
      43Ap     0.551473    44Ap     0.558284    18App    0.558692  
      45Ap     0.561822    19App    0.565818    20App    0.577721  
      46Ap     0.584408    47Ap     0.615429    21App    0.631323  
      48Ap     0.631791    49Ap     0.639386    22App    0.648944  
      50Ap     0.656073    51Ap     0.669147    52Ap     0.689007  
      23App    0.690140    53Ap     0.732268    24App    0.734985  
      25App    0.752070    54Ap     0.787104    26App    0.791316  
      55Ap     0.794158    27App    0.809165    56Ap     0.830538  
      57Ap     0.848074    58Ap     0.851479    59Ap     0.927550  
      28App    0.940440    29App    0.979433    60Ap     1.006178  
      30App    1.039086    61Ap     1.045137    62Ap     1.115472  
      31App    1.115789    63Ap     1.125340    64Ap     1.158366  
      65Ap     1.180085    32App    1.203694    33App    1.211183  
      66Ap     1.308832    67Ap     1.313403    68Ap     1.389260  
      69Ap     1.499635    70Ap     1.782002    34App    1.793569  
      35App    1.816649    71Ap     1.826356    36App    1.847789  
[...]
    Integral Cache:           NONE
    Schwarz Cutoff:          1E-12
    Fitting Condition:       1E-10

   => Auxiliary Basis Set <=

  Basis Set: (AUG-CC-PVTZ AUX)
    Blend: AUG-CC-PVTZ-JKFIT
    Number of shells: 126
    Number of basis function: 438
    Number of Cartesian functions: 540
    Spherical Harmonics?: true
    Max angular momentum: 4

  Cached 100.0% of DFT collocation blocks in 1.627 [GiB].

  Minimum eigenvalue in the overlap matrix is 1.7771209294E-04.
  Using Symmetric Orthogonalization.

  SCF Guess: Superposition of Atomic Densities via on-the-fly atomic UHF.

  ==> Iterations <==

                           Total Energy        Delta E     RMS |[F,P]|

   @DF-UKS iter SAD: -1194.26046882003584   -1.19426e+03   0.00000e+00 
   @DF-UKS iter   1: -1194.45409153995251   -1.93623e-01   3.05991e-03 DIIS
   @DF-UKS iter   2: -1194.46824116533389   -1.41496e-02   2.40099e-03 DIIS
   @DF-UKS iter   3: -1194.50256257279239   -3.43214e-02   5.69469e-04 DIIS
   @DF-UKS iter   4: -1194.50473929722011   -2.17672e-03   8.99192e-05 DIIS
   @DF-UKS iter   5: -1194.50493295597744   -1.93659e-04   2.74080e-05 DIIS
   @DF-UKS iter   6: -1194.50495508429140   -2.21283e-05   1.18695e-05 DIIS
   @DF-UKS iter   7: -1194.50496120661205   -6.12232e-06   5.32496e-06 DIIS
   @DF-UKS iter   8: -1194.50496205068703   -8.44075e-07   4.20051e-06 DIIS
   @DF-UKS iter   9: -1194.50496240738585   -3.56699e-07   9.28891e-07 DIIS
   @DF-UKS iter  10: -1194.50496246263310   -5.52473e-08   3.31394e-07 DIIS
   @DF-UKS iter  11: -1194.50496247080855   -8.17545e-09   2.39604e-07 DIIS
   @DF-UKS iter  12: -1194.50496247492811   -4.11956e-09   2.31314e-07 DIIS
   @DF-UKS iter  13: -1194.50496247825095   -3.32284e-09   2.34090e-07 DIIS
   @DF-UKS iter  14: -1194.50496246069702    1.75539e-08   2.13209e-07 DIIS
   @DF-UKS iter  15: -1194.50496239801350    6.26835e-08   1.02786e-07 DIIS
   @DF-UKS iter  16: -1194.50496238409232    1.39212e-08   3.48591e-08 DIIS
   @DF-UKS iter  17: -1194.50496238366850    4.23825e-10   1.16232e-08 DIIS
   @DF-UKS iter  18: -1194.50496238366304    5.45697e-12   5.34706e-09 DIIS
   @DF-UKS iter  19: -1194.50496238366350   -4.54747e-13   1.81422e-09 DIIS
   @DF-UKS iter  20: -1194.50496238366622   -2.72848e-12   1.02636e-09 DIIS
   @DF-UKS iter  21: -1194.50496238366168    4.54747e-12   6.17208e-10 DIIS
   @DF-UKS iter  22: -1194.50496238366395   -2.27374e-12   5.17952e-10 DIIS
   @DF-UKS iter  23: -1194.50496238366463   -6.82121e-13   1.64288e-10 DIIS
   @DF-UKS iter  24: -1194.50496238366304    1.59162e-12   7.12479e-11 DIIS
  Energy and wave function converged.


  ==> Post-Iterations <==

   @Spin Contamination Metric:   1.907549953E-02
   @S^2 Expected:                2.000000000E+00
   @S^2 Observed:                2.019075500E+00
   @S   Expected:                1.000000000E+00
   @S   Observed:                1.000000000E+00

    Orbital Energies [Eh]
    ---------------------

    Alpha Occupied:                                                       

       1Ap   -89.324321     2Ap   -89.252910     3Ap   -89.252588  
       4Ap    -8.231075     5Ap    -8.164269     6Ap    -8.163929  
       1App   -6.139584     7Ap    -6.139440     8Ap    -6.138751  
       9Ap    -6.077355    10Ap    -6.077017     2App   -6.069668  
      11Ap    -6.069608     3App   -6.069367    12Ap    -6.069217  
      13Ap    -1.005250    14Ap    -0.877765    15Ap    -0.724657  
      16Ap    -0.543034    17Ap    -0.514914     4App   -0.513170  
       5App   -0.402065    18Ap    -0.385730    19Ap    -0.375932  
       6App   -0.313503  

    Alpha Virtual:                                                        

      20Ap     0.004135    21Ap     0.033265    22Ap     0.047453  
      23Ap     0.057552     7App    0.064132    24Ap     0.078145  
      25Ap     0.085518     8App    0.088799    26Ap     0.097203  
       9App    0.098325    27Ap     0.099031    28Ap     0.114733  
      29Ap     0.170204    10App    0.179929    30Ap     0.195201  
      31Ap     0.197919    11App    0.203680    32Ap     0.242934  
      33Ap     0.269380    12App    0.279868    34Ap     0.280553  
      13App    0.290150    35Ap     0.295701    36Ap     0.334937  
      14App    0.339621    37Ap     0.350382    38Ap     0.373307  
      15App    0.387599    39Ap     0.404881    16App    0.443783  
      40Ap     0.461234    17App    0.504316    41Ap     0.524146  
      42Ap     0.531936    43Ap     0.540192    18App    0.544843  
      44Ap     0.558613    45Ap     0.559548    46Ap     0.567989  
      19App    0.570890    20App    0.575174    47Ap     0.613196  
      21App    0.616564    48Ap     0.627342    22App    0.627845  
      49Ap     0.631502    50Ap     0.640941    51Ap     0.665732  
      23App    0.685308    52Ap     0.695244    24App    0.723478  
      53Ap     0.724880    25App    0.761107    26App    0.786352  
      54Ap     0.786740    55Ap     0.804747    27App    0.824493  
      56Ap     0.857430    57Ap     0.863356    58Ap     0.873423  
      28App    0.940768    59Ap     0.949098    29App    0.993721  
      60Ap     1.021677    30App    1.068560    61Ap     1.080393  
      62Ap     1.116921    31App    1.126903    63Ap     1.154130  
      64Ap     1.185021    65Ap     1.193617    32App    1.220025  
      33App    1.235799    66Ap     1.320105    67Ap     1.336330  
      68Ap     1.402048    69Ap     1.478285    70Ap     1.744360  
      34App    1.760966    35App    1.790135    71Ap     1.790440  
      36App    1.826291    37App    1.829949    72Ap     1.830092  
      73Ap     1.838523    74Ap     1.859589    38App    1.903341  
      75Ap     1.933150    76Ap     1.943245    77Ap     1.964071  
      78Ap     1.967747    39App    1.972334    40App    1.987386  
      79Ap     1.994122    41App    2.016181    42App    2.028573  
      80Ap     2.034093    43App    2.060242    81Ap     2.066391  
      82Ap     2.112595    44App    2.131337    83Ap     2.134863  
      45App    2.140203    84Ap     2.141994    46App    2.213183  
      85Ap     2.227090    86Ap     2.260486    47App    2.279527  
      87Ap     2.283437    48App    2.297490    49App    2.380898  
      88Ap     2.381368    89Ap     2.447112    90Ap     2.483423  
      91Ap     2.515945    50App    2.571512    92Ap     2.581735  
      93Ap     2.625539    51App    2.629219    94Ap     2.792865  
      95Ap     3.591471    96Ap     3.768586    97Ap     5.049687  
      98Ap     5.241275    99Ap     5.649936  

    Beta Occupied:                                                        

       1Ap   -89.319992     2Ap   -89.248481     3Ap   -89.248173  
       4Ap    -8.226580     5Ap    -8.159824     6Ap    -8.159498  
       7Ap    -6.136608     8Ap    -6.132988     1App   -6.127484  
       9Ap    -6.070849    10Ap    -6.070541    11Ap    -6.062676  
      12Ap    -6.062343     2App   -6.061111     3App   -6.060795  
      13Ap    -0.986527    14Ap    -0.854266    15Ap    -0.678947  
      16Ap    -0.510737    17Ap    -0.492741     4App   -0.476457  
       5App   -0.350034    18Ap    -0.343030  

    Beta Virtual:                                                         

      19Ap    -0.133586     6App   -0.072430    20Ap     0.013722  
      21Ap     0.034765    22Ap     0.049030    23Ap     0.057887  
       7App    0.064648    24Ap     0.079356    25Ap     0.086527  
       8App    0.088000     9App    0.098786    26Ap     0.100960  
      27Ap     0.105069    28Ap     0.131847    29Ap     0.171363  
      10App    0.185369    30Ap     0.197189    31Ap     0.201316  
      11App    0.218045    32Ap     0.249138    33Ap     0.273634  
      12App    0.286915    34Ap     0.291496    13App    0.301315  
      35Ap     0.301599    36Ap     0.336077    14App    0.343681  
      37Ap     0.353663    38Ap     0.375532    15App    0.391453  
      39Ap     0.410056    16App    0.451687    40Ap     0.465450  
      17App    0.512888    41Ap     0.530628    42Ap     0.537246  
      43Ap     0.545410    18App    0.556281    44Ap     0.562823  
      45Ap     0.564923    46Ap     0.574577    19App    0.579731  
      20App    0.580490    47Ap     0.619345    48Ap     0.634652  
      21App    0.637596    22App    0.640526    49Ap     0.646964  
      50Ap     0.653731    51Ap     0.682309    23App    0.696363  
      52Ap     0.711118    24App    0.733531    53Ap     0.736211  
      25App    0.780240    26App    0.790678    54Ap     0.791086  
      55Ap     0.812244    27App    0.832374    56Ap     0.862717  
      57Ap     0.872244    58Ap     0.889239    28App    0.944648  
      59Ap     0.955007    29App    1.000122    60Ap     1.025792  
      30App    1.074128    61Ap     1.084830    62Ap     1.118890  
      31App    1.132449    63Ap     1.161249    64Ap     1.192392  
      65Ap     1.202239    32App    1.227788    33App    1.245119  
      66Ap     1.330557    67Ap     1.355458    68Ap     1.420974  
      69Ap     1.506200    70Ap     1.778454    34App    1.790698  
      71Ap     1.820418    35App    1.823006    36App    1.840065  
      72Ap     1.848472    37App    1.862300    73Ap     1.867780  
      74Ap     1.878802    38App    1.936355    75Ap     1.952268  
      76Ap     1.962644    77Ap     1.985974    78Ap     1.989472  
      39App    2.003823    79Ap     2.008739    40App    2.010135  
      41App    2.040297    42App    2.047649    80Ap     2.054490  
      81Ap     2.088410    43App    2.098184    82Ap     2.140301  
      83Ap     2.161929    44App    2.162814    45App    2.170619  
      84Ap     2.171582    46App    2.235204    85Ap     2.252062  
      86Ap     2.283340    47App    2.304276    87Ap     2.305301  
      48App    2.318116    88Ap     2.398122    49App    2.405969  
      89Ap     2.465411    90Ap     2.498892    91Ap     2.532323  
      50App    2.591714    92Ap     2.599510    93Ap     2.645358  
      51App    2.654653    94Ap     2.811429    95Ap     3.605164  
      96Ap     3.775615    97Ap     5.066239    98Ap     5.256322  
      99Ap     5.665178  

    Final Occupation by Irrep:
             Ap   App 
    DOCC [    18,    5 ]
    SOCC [     1,    1 ]

  @DF-UKS Final Energy: -1194.50496238366304

   => Energetics <=

    Nuclear Repulsion Energy =            177.9170810893637622
    One-Electron Energy =               -2002.9431761880464364
    Two-Electron Energy =                 689.6987343699058783
    DFT Exchange-Correlation Energy =     -59.3757048676146368
    Empirical Dispersion Energy =           0.0000000000000000
    VV10 Nonlocal Energy =                  0.1981032127282361
    Total Energy =                      -1194.5049623836630417

  UHF NO Occupations:
  HONO-2 :   18 Ap 1.9939795
  HONO-1 :   19 Ap 1.0000000
  HONO-0 :    6App 1.0000000
  LUNO+0 :   20 Ap 0.0060205
  LUNO+1 :    7App 0.0018777
  LUNO+2 :    8App 0.0007296
  LUNO+3 :   21 Ap 0.0006254


Computation Completed


Properties will be evaluated at   0.000000,   0.000000,   0.000000 [a0]

Properties computed using the SCF density matrix

  Nuclear Dipole Moment: [e a0]
     X:     0.0000      Y:     0.0000      Z:     0.0000

  Electronic Dipole Moment: [e a0]
     X:     0.0436      Y:     0.0168      Z:     0.0000

  Dipole Moment: [e a0]
     X:     0.0436      Y:     0.0168      Z:     0.0000     Total:     0.0467

  Dipole Moment: [D]
     X:     0.1107      Y:     0.0426      Z:     0.0000     Total:     0.1187


*** tstop() called on c2-18.compute.lan at Tue Feb  2 22:14:48 2021
Module time:
	user time   =     456.13 seconds =       7.60 minutes
	system time =       1.82 seconds =       0.03 minutes
	total time  =        458 seconds =       7.63 minutes
Total time:
	user time   =   26548.27 seconds =     442.47 minutes
	system time =     197.78 seconds =       3.30 minutes
	total time  =      27301 seconds =     455.02 minutes

         ----------------------------------------------------------
                                   FINDIF
                     R. A. King and Jonathon Misiewicz
         ---------------------------------------------------------

  Computing second-derivative from energies using projected, 
  symmetry-adapted, cartesian coordinates.

  13 energies passed in, including the reference geometry.
    Using 3-point formula.
    Energy without displacement: -1194.5049627371
    Check energies below for precision!
    0: -1        :     -1194.5049626320
    0: 1         :     -1194.5049626368
    1: -1        :     -1194.5049625209
    1: 1         :     -1194.5049625250
    2: -1        :     -1194.5049626519
    2: 1         :     -1194.5049626503
    0: 1, 1: 1   :     -1194.5049625629
    0: -1, 1: -1 :     -1194.5049625556
    0: 1, 2: 1   :     -1194.5049624469
    0: -1, 2: -1 :     -1194.5049624444
    1: 1, 2: 1   :     -1194.5049623876
    1: -1, 2: -1 :     -1194.5049623837

-------------------------------------------------------------


  ==> Harmonic Vibrational Analysis <==

  non-mass-weighted Hessian:       Symmetric? True   Hermitian? True   Lin Dep Dim?  6 (0)
  projection of translations (True) and rotations (True) removed 6 degrees of freedom (6)
  total projector:                 Symmetric? True   Hermitian? True   Lin Dep Dim?  6 (6)
  mass-weighted Hessian:           Symmetric? True   Hermitian? True   Lin Dep Dim?  6 (0)
  pre-proj  low-frequency mode:    0.0000i [cm^-1]
  pre-proj  low-frequency mode:    0.0000i [cm^-1]
  pre-proj  low-frequency mode:    0.0000i [cm^-1]
  pre-proj  low-frequency mode:    0.0000  [cm^-1]
  pre-proj  low-frequency mode:    0.0000  [cm^-1]
  pre-proj  low-frequency mode:    0.0000  [cm^-1]
  pre-proj  all modes:['0.0000i' '0.0000i' '0.0000i' '0.0000' '0.0000' '0.0000' '204.0657'
 '535.5701' '723.4851']
  projected mass-weighted Hessian: Symmetric? True   Hermitian? True   Lin Dep Dim?  6 (6)
  post-proj low-frequency mode:    0.0000i [cm^-1] (TR)
  post-proj low-frequency mode:    0.0000i [cm^-1] (TR)
  post-proj low-frequency mode:    0.0000i [cm^-1] (TR)
  post-proj low-frequency mode:    0.0000  [cm^-1] (TR)
  post-proj low-frequency mode:    0.0000  [cm^-1] (TR)
  post-proj low-frequency mode:    0.0000  [cm^-1] (TR)
  post-proj  all modes:['0.0000i' '0.0000i' '0.0000i' '0.0000' '0.0000' '0.0000' '204.0657'
 '535.5701' '723.4851']

  Vibration                       7                   8                   9           
  Freq [cm^-1]                 204.0657            535.5701            723.4851       
  Irrep                           Ap                  Ap                  Ap          
  Reduced mass [u]             31.9721             31.9721             31.9721        
  Force const [mDyne/A]         0.7844              5.4032              9.8601        
  Turning point v=0 [a0]        0.1358              0.0839              0.0721        
  RMS dev v=0 [a0 u^1/2]        0.5431              0.3353              0.2885        
  Char temp [K]                293.6051            770.5662           1040.9340       
  ----------------------------------------------------------------------------------
      1   S                0.55  0.28 -0.00   -0.48 -0.23 -0.00   -0.35  0.70  0.00   
      2   S               -0.48  0.27 -0.00    0.00  0.60  0.00    0.00 -0.44  0.00   
      3   S               -0.07 -0.55 -0.00    0.48 -0.36  0.00    0.35 -0.26  0.00   

  ==> Thermochemistry Components <==

  Entropy, S
    Electronic S            2.183 [cal/(mol K)]        9.134 [J/(mol K)]       0.00347910 [mEh/K] (multiplicity = 3)
    Translational S        39.594 [cal/(mol K)]      165.660 [J/(mol K)]       0.06309659 [mEh/K] (mol. weight = 95.9162 [u], P = 101325.00 [Pa])
    Rotational S           24.912 [cal/(mol K)]      104.234 [J/(mol K)]       0.03970052 [mEh/K] (symmetry no. = 1)
    Vibrational S           2.950 [cal/(mol K)]       12.345 [J/(mol K)]       0.00470187 [mEh/K]
  Total S                  69.640 [cal/(mol K)]      291.373 [J/(mol K)]       0.11097807 [mEh/K]
  Correction S              0.000 [cal/(mol K)]        0.000 [J/(mol K)]       0.00000000 [mEh/K]

  Constant volume heat capacity, Cv
    Electronic Cv           0.000 [cal/(mol K)]        0.000 [J/(mol K)]       0.00000000 [mEh/K]
    Translational Cv        2.981 [cal/(mol K)]       12.472 [J/(mol K)]       0.00475022 [mEh/K]
    Rotational Cv           2.981 [cal/(mol K)]       12.472 [J/(mol K)]       0.00475022 [mEh/K]
    Vibrational Cv          3.790 [cal/(mol K)]       15.859 [J/(mol K)]       0.00604037 [mEh/K]
  Total Cv                  9.752 [cal/(mol K)]       40.802 [J/(mol K)]       0.01554081 [mEh/K]
  Correction Cv             0.000 [cal/(mol K)]        0.000 [J/(mol K)]       0.00000000 [mEh/K]

  Constant pressure heat capacity, Cp
    Electronic Cp           0.000 [cal/(mol K)]        0.000 [J/(mol K)]       0.00000000 [mEh/K]
    Translational Cp        4.968 [cal/(mol K)]       20.786 [J/(mol K)]       0.00791703 [mEh/K]
    Rotational Cp           2.981 [cal/(mol K)]       12.472 [J/(mol K)]       0.00475022 [mEh/K]
    Vibrational Cp          3.790 [cal/(mol K)]       15.859 [J/(mol K)]       0.00604037 [mEh/K]
  Total Cp                 11.739 [cal/(mol K)]       49.117 [J/(mol K)]       0.01870762 [mEh/K]
  Correction Cp             0.000 [cal/(mol K)]        0.000 [J/(mol K)]       0.00000000 [mEh/K]

  ==> Thermochemistry Energy Analysis <==

  Raw electronic energy, E0
  Total E0, Electronic energy at well bottom at 0 [K]                -1194.50496274 [Eh]

  Zero-point energy, ZPE_vib = Sum_i nu_i / 2
    Electronic ZPE          0.000 [kcal/mol]        0.000 [kJ/mol]       0.00000000 [Eh]
    Translational ZPE       0.000 [kcal/mol]        0.000 [kJ/mol]       0.00000000 [Eh]
    Rotational ZPE          0.000 [kcal/mol]        0.000 [kJ/mol]       0.00000000 [Eh]
    Vibrational ZPE         2.092 [kcal/mol]        8.751 [kJ/mol]       0.00333323 [Eh]         731.560 [cm^-1]
  Correction ZPE            2.092 [kcal/mol]        8.751 [kJ/mol]       0.00333323 [Eh]         731.560 [cm^-1]
  Total ZPE, Electronic energy at 0 [K]                              -1194.50162950 [Eh]

  Thermal Energy, E (includes ZPE)
    Electronic E            0.000 [kcal/mol]        0.000 [kJ/mol]       0.00000000 [Eh]
    Translational E         0.889 [kcal/mol]        3.718 [kJ/mol]       0.00141628 [Eh]
    Rotational E            0.889 [kcal/mol]        3.718 [kJ/mol]       0.00141628 [Eh]
    Vibrational E           2.629 [kcal/mol]       11.002 [kJ/mol]       0.00419028 [Eh]
  Correction E              4.407 [kcal/mol]       18.438 [kJ/mol]       0.00702284 [Eh]
  Total E, Electronic energy at  298.15 [K]                          -1194.49793990 [Eh]

  Enthalpy, H_trans = E_trans + k_B * T
    Electronic H            0.000 [kcal/mol]        0.000 [kJ/mol]       0.00000000 [Eh]
    Translational H         1.481 [kcal/mol]        6.197 [kJ/mol]       0.00236046 [Eh]
    Rotational H            0.889 [kcal/mol]        3.718 [kJ/mol]       0.00141628 [Eh]
    Vibrational H           2.629 [kcal/mol]       11.002 [kJ/mol]       0.00419028 [Eh]
  Correction H              4.999 [kcal/mol]       20.917 [kJ/mol]       0.00796702 [Eh]
  Total H, Enthalpy at  298.15 [K]                                   -1194.49699572 [Eh]

  Gibbs free energy, G = H - T * S
    Electronic G           -0.651 [kcal/mol]       -2.723 [kJ/mol]      -0.00103729 [Eh]
    Translational G       -10.324 [kcal/mol]      -43.194 [kJ/mol]      -0.01645179 [Eh]
    Rotational G           -6.539 [kcal/mol]      -27.359 [kJ/mol]      -0.01042043 [Eh]
    Vibrational G           1.750 [kcal/mol]        7.321 [kJ/mol]       0.00278842 [Eh]
  Correction G            -15.764 [kcal/mol]      -65.955 [kJ/mol]      -0.02512109 [Eh]
  Total G, Free enthalpy at  298.15 [K]                              -1194.53008383 [Eh]

    Psi4 stopped on: Tuesday, 02 February 2021 10:14PM
    Psi4 wall time for execution: 7:35:02.00

*** Psi4 exiting successfully. Buy a developer a beer!
