
    -----------------------------------------------------------------------
          Psi4: An Open-Source Ab Initio Electronic Structure Package
                               Psi4 1.3.2 release

                         Git: Rev {HEAD} ecbda83 


    R. M. Parrish, L. A. Burns, D. G. A. Smith, A. C. Simmonett,
    A. E. DePrince III, E. G. Hohenstein, U. Bozkaya, A. Yu. Sokolov,
    R. Di Remigio, R. M. Richard, J. F. Gonthier, A. M. James,
    H. R. McAlexander, A. Kumar, M. Saitow, X. Wang, B. P. Pritchard,
    P. Verma, H. F. Schaefer III, K. Patkowski, R. A. King, E. F. Valeev,
    F. A. Evangelista, J. M. Turney, T. D. Crawford, and C. D. Sherrill,
    J. Chem. Theory Comput. 13(7) pp 3185--3197 (2017).
    (doi: 10.1021/acs.jctc.7b00174)


                         Additional Contributions by
    P. Kraus, H. Kruse, M. H. Lechner, M. C. Schieber, R. A. Shaw,
    A. Alenaizan, R. Galvelis, Z. L. Glick, S. Lehtola, and J. P. Misiewicz

    -----------------------------------------------------------------------


    Psi4 started on: Friday, 05 March 2021 04:54PM

    Process ID: 107651
    Host:       d3-2.compute.lan
    PSIDATADIR: /apps/gb/PSI4/1.3.2/share/psi4
    Memory:     500.0 MiB
    Threads:    12
    
  ==> Input File <==

--------------------------------------------------------------------------
memory 46 GB

basis jerome {
assign pot
assign S aug-cc-pV(T+d)Z

[pot]
spherical
****
 K  0
 S 23 1.00
    2.709796E+07     4.136110E-07
    3.592856E+06     3.860330E-06
    7.222638E+05     2.394640E-05
    1.833976E+05     1.157540E-04
    5.464812E+04     4.697010E-04
    1.830913E+04     1.673720E-03
    6.712501E+03     5.370450E-03
    2.643719E+03     1.572510E-02
    1.103835E+03     4.193360E-02
    4.836777E+02     9.987620E-02
    2.206245E+02     2.019680E-01
    1.041117E+02     3.146270E-01
    5.052749E+01     3.107540E-01
    2.485247E+01     1.421920E-01
    1.128102E+01     1.658490E-02
    5.510166E+00    -2.759760E-04
    2.706914E+00     5.158310E-04
    1.122807E+00    -2.268950E-04
    5.236385E-01     6.652980E-05
    2.355180E-01    -3.685150E-05
    4.157977E-02     1.925250E-05
    2.555456E-02    -2.108420E-05
    1.471495E-02     7.044600E-06
 S 23 1.00
    2.709796E+07    -1.188290E-07
    3.592856E+06    -1.108550E-06
    7.222638E+05    -6.881230E-06
    1.833976E+05    -3.324150E-05
    5.464812E+04    -1.350850E-04
    1.830913E+04    -4.814570E-04
    6.712501E+03    -1.552620E-03
    2.643719E+03    -4.578330E-03
    1.103835E+03    -1.247930E-02
    4.836777E+02    -3.094650E-02
    2.206245E+02    -6.855530E-02
    1.041117E+02    -1.268300E-01
    5.052749E+01    -1.745020E-01
    2.485247E+01    -9.089560E-02
    1.128102E+01     2.506960E-01
    5.510166E+00     5.589630E-01
    2.706914E+00     3.284370E-01
    1.122807E+00     3.392170E-02
    5.236385E-01    -2.100280E-03
    2.355180E-01     1.383960E-03
    4.157977E-02    -5.315630E-04
    2.555456E-02     5.770310E-04
    1.471495E-02    -1.931440E-04
 S 23 1.00
    2.709796E+07     3.917470E-08
    3.592856E+06     3.650640E-07
    7.222638E+05     2.269460E-06
    1.833976E+05     1.094290E-05
    5.464812E+04     4.457360E-05
    1.830913E+04     1.584480E-04
    6.712501E+03     5.128440E-04
    2.643719E+03     1.507690E-03
    1.103835E+03     4.136940E-03
    4.836777E+02     1.024690E-02
    2.206245E+02     2.306520E-02
    1.041117E+02     4.308900E-02
    5.052749E+01     6.238120E-02
    2.485247E+01     3.270420E-02
    1.128102E+01    -1.021980E-01
    5.510166E+00    -3.317970E-01
    2.706914E+00    -3.030100E-01
    1.122807E+00     3.098410E-01
    5.236385E-01     6.732700E-01
    2.355180E-01     2.812200E-01
    4.157977E-02     9.376240E-03
    2.555456E-02    -6.955720E-03
    1.471495E-02     2.069460E-03
 S 23 1.00
    2.709796E+07    -7.564440E-09
    3.592856E+06    -7.055390E-08
    7.222638E+05    -4.380820E-07
    1.833976E+05    -2.115540E-06
    5.464812E+04    -8.601300E-06
    1.830913E+04    -3.064440E-05
    6.712501E+03    -9.892550E-05
    2.643719E+03    -2.917760E-04
    1.103835E+03    -7.977860E-04
    4.836777E+02    -1.985820E-03
    2.206245E+02    -4.449740E-03
    1.041117E+02    -8.390260E-03
    5.052749E+01    -1.206000E-02
    2.485247E+01    -6.568410E-03
    1.128102E+01     2.061430E-02
    5.510166E+00     6.770060E-02
    2.706914E+00     6.639570E-02
    1.122807E+00    -8.237770E-02
    5.236385E-01    -1.727150E-01
    2.355180E-01    -2.310290E-01
    4.157977E-02     5.090040E-01
    2.555456E-02     3.472180E-01
    1.471495E-02     2.809620E-01
 S 1 1.00
    2.555456E-02     1.000000E+00
 S 1 1.00
    1.471495E-02     1.000000E+00
 S 1 1.00
    8.470000E-03     1.000000E+00
 P 16 1.00
    9.533309E+03     4.212010E-05
    1.852081E+03     5.068300E-04
    5.464251E+02     3.311700E-03
    1.966947E+02     1.536840E-02
    7.964112E+01     5.457060E-02
    3.488324E+01     1.473880E-01
    1.604479E+01     2.879240E-01
    7.575632E+00     3.750810E-01
    3.672548E+00     2.545160E-01
    1.771130E+00     6.059280E-02
    8.515199E-01     2.508370E-03
    4.016017E-01     6.688870E-04
    1.851933E-01    -1.486150E-04
    5.523390E-02     4.936010E-05
    2.431085E-02    -3.513850E-05
    1.080339E-02     1.171450E-05
 P 16 1.00
    9.533309E+03    -1.280760E-05
    1.852081E+03    -1.547870E-04
    5.464251E+02    -1.010940E-03
    1.966947E+02    -4.738330E-03
    7.964112E+01    -1.703260E-02
    3.488324E+01    -4.754130E-02
    1.604479E+01    -9.560810E-02
    7.575632E+00    -1.337000E-01
    3.672548E+00    -7.425060E-02
    1.771130E+00     1.646810E-01
    8.515199E-01     4.057630E-01
    4.016017E-01     4.113600E-01
    1.851933E-01     1.734240E-01
    5.523390E-02     1.253640E-02
    2.431085E-02    -3.267140E-03
    1.080339E-02     1.039680E-03
 P 16 1.00
    9.533309E+03     1.764010E-06
    1.852081E+03     2.124880E-05
    5.464251E+02     1.392500E-04
    1.966947E+02     6.509140E-04
    7.964112E+01     2.349940E-03
    3.488324E+01     6.547470E-03
    1.604479E+01     1.326270E-02
    7.575632E+00     1.848520E-02
    3.672548E+00     1.025530E-02
    1.771130E+00    -2.652150E-02
    8.515199E-01    -6.086460E-02
    4.016017E-01    -7.474220E-02
    1.851933E-01    -4.870880E-02
    5.523390E-02     2.245720E-01
    2.431085E-02     5.839280E-01
    1.080339E-02     2.980960E-01
 P 1 1.00
    5.523390E-02     1.000000E+00
 P 1 1.00
    1.080339E-02     1.000000E+00
 P 1 1.00
    4.800000E-03     1.000000E+00
 D 6 1.00
    5.670903E+00     8.285900E-03
    1.459042E+00     2.332530E-02
    5.431827E-01     4.878080E-02
    1.346875E-01     7.349020E-02
    5.516013E-02     2.387630E-01
    1.501876E-02     8.253200E-01
 D 1 1.00
    5.516013E-02     1.000000E+00
 D 1 1.00
    1.501876E-02     1.000000E+00
 D 1 1.00
    6.010000E-03     1.000000E+00
 F 1 1.00
    8.493750E-02     1.000000E+00
 F 1 1.00
    3.398000E-02     1.000000E+00
 ****
}

molecule  {
0 2
S   -1.195437607391    1.038238164474    0.000000000000
S   -1.195273559126   -1.038120221728    0.000000000000
K    1.961722702125   -0.000096779137    0.000000000000
}
set {
basis jerome
reference uhf
g_convergence gau_verytight
e_convergence 10
scf_type pk
freeze_core true
geom_maxiter 100
}

set ccenergy {
e_convergence 10
r_convergence 10
}

e = energy('ccsd(t)')

print_out('Stephenergy {}'.format(e))

--------------------------------------------------------------------------

  Memory set to  42.841 GiB by Python driver.

*** tstart() called on d3-2.compute.lan
*** at Fri Mar  5 16:54:56 2021

   => Loading Basis Set <=

    Name: JEROME
    Role: ORBITAL
    Keyword: BASIS
    atoms 1-2 entry S          line   928 file /apps/gb/PSI4/1.3.2/share/psi4/basis/aug-cc-pv_tpd_z.gbs 
    atoms 3   entry K          line     5 inputblock pot 


         ---------------------------------------------------------
                                   SCF
               by Justin Turney, Rob Parrish, Andy Simmonett
                          and Daniel G. A. Smith
                              UHF Reference
                       12 Threads,  43869 MiB Core
         ---------------------------------------------------------

  ==> Geometry <==

    Molecular point group: cs
    Full point group: Cs

    Geometry (in Angstrom), charge = 0, multiplicity = 2:

       Center              X                  Y                   Z               Mass       
    ------------   -----------------  -----------------  -----------------  -----------------
         S           -1.195437607391     1.038238164474     0.000000000000    31.972071174400
         S           -1.195273559126    -1.038120221728     0.000000000000    31.972071174400
         K            1.961722702125    -0.000096779137     0.000000000000    38.963706486400

  Running in cs symmetry.

  Rotational constants: A =      0.24460  B =      0.06986  C =      0.05434 [cm^-1]
  Rotational constants: A =   7332.83307  B =   2094.27623  C =   1629.02301 [MHz]
  Nuclear repulsion =  162.054271832167075

  Charge       = 0
  Multiplicity = 2
  Electrons    = 51
  Nalpha       = 26
  Nbeta        = 25

  ==> Algorithm <==

  SCF Algorithm Type is PK.
  DIIS enabled.
  MOM disabled.
  Fractional occupation disabled.
  Guess Type is SAD.
  Energy threshold   = 1.00e-10
  Density threshold  = 1.00e-08
  Integral threshold = 0.00e+00

  ==> Primary Basis <==

  Basis Set: JEROME
    Blend: AUG-CC-PV(T+D)Z + POT
    Number of shells: 53
    Number of basis function: 169
    Number of Cartesian functions: 199
    Spherical Harmonics?: true
    Max angular momentum: 3

  ==> Pre-Iterations <==

   -------------------------------------------------------
    Irrep   Nso     Nmo     Nalpha   Nbeta   Ndocc  Nsocc
   -------------------------------------------------------
     A'       111     111       0       0       0       0
     A"        58      58       0       0       0       0
   -------------------------------------------------------
    Total     169     169      26      25      25       1
   -------------------------------------------------------

  ==> Integral Setup <==

  Using in-core PK algorithm.
   Calculation information:
      Number of atoms:                   3
      Number of AO shells:              53
      Number of primitives:            287
      Number of atomic orbitals:       199
      Number of basis functions:       169

      Integral cutoff                 1.00e-12
      Number of threads:                12

  Performing in-core PK
  Using 206367590 doubles for integral storage.
  We computed 1579731 shell quartets total.
  Whereas there are 1024596 unique shell quartets.
    54.18 percent of shell quartets recomputed by reordering.

  ==> DiskJK: Disk-Based J/K Matrices <==

    J tasked:                  Yes
    K tasked:                  Yes
    wK tasked:                  No
    Memory [MiB]:            32901
    Schwarz Cutoff:          1E-12

    OpenMP threads:             12

  Minimum eigenvalue in the overlap matrix is 2.3802332317E-04.
  Using Symmetric Orthogonalization.

  SCF Guess: Superposition of Atomic Densities via on-the-fly atomic UHF.

  ==> Iterations <==

                        Total Energy        Delta E     RMS |[F,P]|

   @UHF iter SAD: -1393.47917872923017   -1.39348e+03   0.00000e+00 
   @UHF iter   1: -1394.26891249869777   -7.89734e-01   1.99518e-03 DIIS
   @UHF iter   2: -1394.30802406802968   -3.91116e-02   7.13716e-04 DIIS
   @UHF iter   3: -1394.31230062408440   -4.27656e-03   2.20703e-04 DIIS
   @UHF iter   4: -1394.31326908686037   -9.68463e-04   9.43540e-05 DIIS
   @UHF iter   5: -1394.31347253862441   -2.03452e-04   2.46024e-05 DIIS
   @UHF iter   6: -1394.31349114383738   -1.86052e-05   7.25593e-06 DIIS
   @UHF iter   7: -1394.31349305740991   -1.91357e-06   2.83805e-06 DIIS
   @UHF iter   8: -1394.31349338235259   -3.24943e-07   1.46410e-06 DIIS
   @UHF iter   9: -1394.31349349693755   -1.14585e-07   8.38241e-07 DIIS
   @UHF iter  10: -1394.31349354860822   -5.16707e-08   4.68474e-07 DIIS
   @UHF iter  11: -1394.31349356464898   -1.60408e-08   3.16957e-07 DIIS
   @UHF iter  12: -1394.31349357327395   -8.62497e-09   1.72304e-07 DIIS
   @UHF iter  13: -1394.31349357652471   -3.25076e-09   5.31118e-08 DIIS
   @UHF iter  14: -1394.31349357674458   -2.19870e-10   1.73512e-08 DIIS
   @UHF iter  15: -1394.31349357675936   -1.47793e-11   7.07697e-09 DIIS
  Energy and wave function converged.


  ==> Post-Iterations <==

   @Spin Contamination Metric:   3.675272606E-02
   @S^2 Expected:                7.500000000E-01
   @S^2 Observed:                7.867527261E-01
   @S   Expected:                5.000000000E-01
   @S   Observed:                5.000000000E-01

    Orbital Energies [Eh]
    ---------------------

    Alpha Occupied:                                                       

       1Ap  -133.559634     2Ap   -91.906604     3Ap   -91.906590  
       4Ap   -14.515891     1App  -11.545908     5Ap   -11.545825  
       6Ap   -11.545751     7Ap    -8.904127     8Ap    -8.903956  
       2App   -6.593111     3App   -6.593089     9Ap    -6.583008  
      10Ap    -6.582640    11Ap    -6.581450    12Ap    -6.581426  
      13Ap    -1.773858     4App   -0.982953    14Ap    -0.981737  
      15Ap    -0.981396    16Ap    -0.944689    17Ap    -0.757505  
       5App   -0.414068    18Ap    -0.402887    19Ap    -0.386217  
       6App   -0.295981    20Ap    -0.260564  

    Alpha Virtual:                                                        

      21Ap    -0.019897     7App    0.002172    22Ap     0.002631  
      23Ap     0.005694    24Ap     0.016456     8App    0.017141  
      25Ap     0.017264     9App    0.019895    26Ap     0.020823  
      27Ap     0.022363    10App    0.022864    28Ap     0.028726  
      29Ap     0.032855    30Ap     0.051011    11App    0.051140  
      31Ap     0.055475    12App    0.058848    32Ap     0.061864  
      13App    0.073585    33Ap     0.074485    34Ap     0.088214  
      35Ap     0.104498    36Ap     0.108419    37Ap     0.125503  
      14App    0.125672    38Ap     0.128645    39Ap     0.128783  
      15App    0.129772    16App    0.133149    40Ap     0.133829  
      41Ap     0.150437    17App    0.152721    42Ap     0.153540  
      18App    0.167031    43Ap     0.170576    44Ap     0.174857  
      19App    0.178463    20App    0.186397    45Ap     0.206846  
      46Ap     0.207620    47Ap     0.221486    21App    0.233525  
      48Ap     0.244630    49Ap     0.267883    50Ap     0.310712  
      51Ap     0.310892    22App    0.337556    52Ap     0.350664  
      53Ap     0.362693    23App    0.375761    24App    0.381793  
      54Ap     0.383549    25App    0.386400    55Ap     0.391629  
      56Ap     0.391681    26App    0.394179    57Ap     0.406251  
      27App    0.407373    58Ap     0.428292    59Ap     0.431063  
      60Ap     0.439845    28App    0.452921    29App    0.456736  
      61Ap     0.463043    30App    0.466753    62Ap     0.488098  
      63Ap     0.514916    64Ap     0.537824    31App    0.666903  
      32App    0.703384    65Ap     0.709129    33App    0.711267  
      66Ap     0.730724    67Ap     0.746963    68Ap     0.785636  
      34App    0.801220    69Ap     0.814184    70Ap     0.815401  
      35App    0.850899    71Ap     0.856570    72Ap     0.870969  
      36App    0.892303    73Ap     0.909451    37App    0.914861  
      74Ap     0.947907    75Ap     0.948203    76Ap     0.962307  
      38App    1.012363    77Ap     1.019116    39App    1.048340  
      78Ap     1.052801    79Ap     1.079074    40App    1.161915  
      80Ap     1.197202    81Ap     1.197939    41App    1.202639  
      82Ap     1.218775    42App    1.363598    83Ap     1.395237  
      84Ap     1.462277    85Ap     1.677317    43App    2.031449  
      86Ap     2.036083    44App    2.064652    87Ap     2.067244  
      45App    2.079038    88Ap     2.096783    89Ap     2.132105  
      46App    2.214698    90Ap     2.284067    47App    2.287129  
      91Ap     2.291974    92Ap     2.312038    93Ap     2.372141  
      48App    2.378760    94Ap     2.413058    49App    2.421765  
      95Ap     2.450542    96Ap     2.473526    50App    2.485777  
      51App    2.504879    52App    2.561527    97Ap     2.581732  
      53App    2.585123    98Ap     2.669005    99Ap     2.685737  
     100Ap     2.707727   101Ap     2.727170    54App    2.868095  
     102Ap     2.899256   103Ap     3.990430   104Ap     4.956086  
     105Ap     5.750236    55App    7.417023   106Ap     7.419793  
     107Ap     7.436083    56App    7.436356    57App    7.438758  
     108Ap     7.461774    58App    7.509759   109Ap     7.532477  
     110Ap     7.597364   111Ap     7.607760  

    Beta Occupied:                                                        

       1Ap  -133.559657     2Ap   -91.901015     3Ap   -91.901003  
       4Ap   -14.515921     1App  -11.545942     5Ap   -11.545859  
       6Ap   -11.545782     7Ap    -8.898052     8Ap    -8.897844  
       9Ap    -6.580308    10Ap    -6.579926    11Ap    -6.577908  
      12Ap    -6.577886     2App   -6.568645     3App   -6.568609  
      13Ap    -1.774019     4App   -0.983113    14Ap    -0.981883  
      15Ap    -0.980413    16Ap    -0.906437    17Ap    -0.686894  
      18Ap    -0.386958    19Ap    -0.377688     5App   -0.289369  
      20Ap    -0.247566  

    Beta Virtual:                                                         

      21Ap    -0.019908     6App    0.002202    22Ap     0.002644  
      23Ap     0.005682    24Ap     0.016451     7App    0.016970  
      25Ap     0.017265     8App    0.019936    26Ap     0.020848  
      27Ap     0.022412     9App    0.022957    28Ap     0.028728  
      29Ap     0.032765    10App    0.047003    30Ap     0.050978  
      31Ap     0.055744    11App    0.059302    32Ap     0.061831  
      12App    0.065089    13App    0.073769    33Ap     0.074679  
      34Ap     0.087877    35Ap     0.104282    36Ap     0.110123  
      37Ap     0.125704    14App    0.125788    38Ap     0.128607  
      39Ap     0.129634    15App    0.129695    40Ap     0.133874  
      16App    0.134981    41Ap     0.150296    42Ap     0.153792  
      17App    0.164169    18App    0.171838    43Ap     0.172130  
      44Ap     0.174537    19App    0.183770    20App    0.187114  
      45Ap     0.207577    46Ap     0.212302    47Ap     0.224322  
      21App    0.233745    48Ap     0.245244    49Ap     0.267057  
      50Ap     0.313716    51Ap     0.317339    52Ap     0.351906  
      22App    0.356553    53Ap     0.366869    54Ap     0.383859  
      23App    0.384532    24App    0.388649    25App    0.389663  
      55Ap     0.391533    56Ap     0.395680    26App    0.396033  
      27App    0.407418    57Ap     0.408604    58Ap     0.430943  
      59Ap     0.433720    60Ap     0.442862    28App    0.462580  
      61Ap     0.468827    29App    0.470032    30App    0.475485  
      62Ap     0.488980    63Ap     0.518521    64Ap     0.538556  
      31App    0.686343    65Ap     0.716881    66Ap     0.736505  
      32App    0.739700    33App    0.741879    67Ap     0.749419  
      68Ap     0.798377    69Ap     0.814467    34App    0.818257  
      70Ap     0.831407    71Ap     0.868867    35App    0.885516  
      72Ap     0.895511    73Ap     0.915060    36App    0.921940  
      37App    0.925364    74Ap     0.951613    75Ap     0.960313  
      76Ap     0.966156    38App    1.024786    77Ap     1.030155  
      78Ap     1.054723    39App    1.058918    79Ap     1.085418  
      40App    1.174091    80Ap     1.196907    81Ap     1.207428  
      41App    1.209208    82Ap     1.220854    42App    1.379771  
      83Ap     1.397271    84Ap     1.475183    85Ap     1.692737  
      43App    2.046665    86Ap     2.050800    44App    2.079691  
      87Ap     2.082264    45App    2.094963    88Ap     2.098954  
      89Ap     2.134309    46App    2.236766    90Ap     2.288911  
      91Ap     2.294128    47App    2.303911    92Ap     2.314824  
      93Ap     2.385168    48App    2.391468    94Ap     2.425098  
      49App    2.454127    95Ap     2.461892    96Ap     2.495879  
      50App    2.508776    51App    2.531937    52App    2.586066  
      97Ap     2.597926    53App    2.601396    98Ap     2.674523  
      99Ap     2.690232   100Ap     2.712213   101Ap     2.732984  
      54App    2.889192   102Ap     2.901965   103Ap     3.993928  
     104Ap     4.967254   105Ap     5.760574    55App    7.423219  
     106Ap     7.426116   107Ap     7.442613    56App    7.442876  
      57App    7.444814   108Ap     7.462851    58App    7.515717  
     109Ap     7.533357   110Ap     7.599305   111Ap     7.609643  

    Final Occupation by Irrep:
             Ap   App 
    DOCC [    20,    5 ]
    SOCC [     0,    1 ]

  @UHF Final Energy: -1394.31349357675936

   => Energetics <=

    Nuclear Repulsion Energy =            162.0542718321670748
    One-Electron Energy =               -2249.3259700204075671
    Two-Electron Energy =                 692.9582046114811646
    Total Energy =                      -1394.3134935767593561

  UHF NO Occupations:
  HONO-2 :   20 Ap 1.9974858
  HONO-1 :    5App 1.9869144
  HONO-0 :    6App 1.0000000
  LUNO+0 :    7App 0.0130856
  LUNO+1 :   21 Ap 0.0025142
  LUNO+2 :   22 Ap 0.0022671
  LUNO+3 :   23 Ap 0.0003117


Computation Completed


Properties will be evaluated at   0.000000,   0.000000,   0.000000 [a0]

Properties computed using the SCF density matrix

  Nuclear Dipole Moment: [e a0]
     X:    -1.8494      Y:     0.0001      Z:     0.0000

  Electronic Dipole Moment: [e a0]
     X:     6.6349      Y:    -0.0002      Z:     0.0000

  Dipole Moment: [e a0]
     X:     4.7855      Y:    -0.0001      Z:     0.0000     Total:     4.7855

  Dipole Moment: [D]
     X:    12.1635      Y:    -0.0002      Z:     0.0000     Total:    12.1635


*** tstop() called on d3-2.compute.lan at Fri Mar  5 16:56:07 2021
Module time:
	user time   =     267.17 seconds =       4.45 minutes
	system time =       3.66 seconds =       0.06 minutes
	total time  =         71 seconds =       1.18 minutes
Total time:
	user time   =     267.17 seconds =       4.45 minutes
	system time =       3.66 seconds =       0.06 minutes
	total time  =         71 seconds =       1.18 minutes
 MINTS: Wrapper to libmints.
   by Justin Turney

   Calculation information:
      Number of threads:                12
      Number of atoms:                   3
      Number of AO shells:              53
      Number of SO shells:              53
      Number of primitives:            287
      Number of atomic orbitals:       199
      Number of basis functions:       169

      Number of irreps:                  2
      Integral cutoff                 0.00e+00
      Number of functions per irrep: [ 111   58 ]

 OEINTS: Overlap, kinetic, potential, dipole, and quadrupole integrals
         stored in file 35.

      Computing two-electron integrals...done
      Computed 50993937 non-zero two-electron integrals.
        Stored in file 33.


*** tstart() called on d3-2.compute.lan
*** at Fri Mar  5 16:58:24 2021


	Wfn Parameters:
	--------------------
	Wavefunction         = CCSD_T
	Number of irreps     = 2
	Number of MOs        = 169
	Number of active MOs = 150
	AO-Basis             = NONE
	Semicanonical        = false
	Reference            = UHF
	Print Level          = 1

	IRREP	# MOs	# FZDC	# DOCC	# SOCC	# VIRT	# FZVR
	-----	-----	------	------	------	------	------
	 Ap	   111	    15	    5	    0	    91	    0
	 App	   58	    4	    1	    1	    52	    0
	Transforming integrals...
	IWL integrals will be deleted.
	(OO|OO)...
	Presorting SO-basis two-electron integrals.
	Sorting File: SO Ints (nn|nn) nbuckets = 1
	Transforming the one-electron integrals and constructing Fock matrices
	Starting AA/AB first half-transformation.
	Sorting AA/AB half-transformed integrals.
	Starting BB first half-transformation.
	Sorting BB half-transformed integrals.
	First half integral transformation complete.
	Starting AA second half-transformation.
	Starting AB second half-transformation.
	Starting BB second half-transformation.
	Two-electron integral transformation complete.
	(OO|OV)...
	Starting AA second half-transformation.
	Starting AB second half-transformation.
	Starting BB second half-transformation.
	Two-electron integral transformation complete.
	(OO|VV)...
	Starting AA second half-transformation.
	Starting AB second half-transformation.
	Starting BB second half-transformation.
	Two-electron integral transformation complete.
	(OV|OO)...
	Starting AA/AB first half-transformation.
	Sorting AA/AB half-transformed integrals.
	Starting BB first half-transformation.
	Sorting BB half-transformed integrals.
	First half integral transformation complete.
	Starting AA second half-transformation.
	Starting AB second half-transformation.
	Starting BB second half-transformation.
	Two-electron integral transformation complete.
	(OV|OV)...
	Starting AA second half-transformation.
	Starting AB second half-transformation.
	Starting BB second half-transformation.
	Two-electron integral transformation complete.
	(OV|VV)...
	Starting AA second half-transformation.
	Starting AB second half-transformation.
	Starting BB second half-transformation.
	Two-electron integral transformation complete.
	(VV|OO)...
	Starting AA/AB first half-transformation.
	Sorting AA/AB half-transformed integrals.
	Starting BB first half-transformation.
	Sorting BB half-transformed integrals.
	First half integral transformation complete.
	Starting AA second half-transformation.
	Starting AB second half-transformation.
	Starting BB second half-transformation.
	Two-electron integral transformation complete.
	(VV|OV)...
	Starting AA second half-transformation.
	Starting AB second half-transformation.
	Starting BB second half-transformation.
	Two-electron integral transformation complete.
	(VV|VV)...
	Starting AA second half-transformation.
	Starting AB second half-transformation.
	Starting BB second half-transformation.
	Two-electron integral transformation complete.
	Frozen core energy     =  -1525.25053045965478

	Size of irrep 0 of <AB|CD> integrals:     29.387 (MW) /    235.098 (MB)
	Size of irrep 1 of <AB|CD> integrals:     22.392 (MW) /    179.135 (MB)
	Total:                                    51.779 (MW) /    414.233 (MB)

	Size of irrep 0 of <ab|cd> integrals:     29.954 (MW) /    239.630 (MB)
	Size of irrep 1 of <ab|cd> integrals:     23.261 (MW) /    186.091 (MB)
	Total:                                    53.215 (MW) /    425.720 (MB)

	Size of irrep 0 of <Ab|Cd> integrals:    121.815 (MW) /    974.523 (MB)
	Size of irrep 1 of <Ab|Cd> integrals:     91.298 (MW) /    730.384 (MB)
	Total:                                   213.113 (MW) /   1704.907 (MB)

	Size of irrep 0 of <IA|BC> integrals:      6.141 (MW) /     49.125 (MB)
	Size of irrep 1 of <IA|BC> integrals:      4.183 (MW) /     33.465 (MB)
	Total:                                    10.324 (MW) /     82.590 (MB)

	Size of irrep 0 of <ia|bc> integrals:      5.634 (MW) /     45.070 (MB)
	Size of irrep 1 of <ia|bc> integrals:      3.434 (MW) /     27.472 (MB)
	Total:                                     9.068 (MW) /     72.542 (MB)

	Size of irrep 0 of <Ia|Bc> integrals:      6.192 (MW) /     49.534 (MB)
	Size of irrep 1 of <Ia|Bc> integrals:      4.271 (MW) /     34.169 (MB)
	Total:                                    10.463 (MW) /     83.703 (MB)

	Size of irrep 0 of <iA|bC> integrals:      5.596 (MW) /     44.766 (MB)
	Size of irrep 1 of <iA|bC> integrals:      3.354 (MW) /     26.830 (MB)
	Total:                                     8.950 (MW) /     71.597 (MB)

	Size of irrep 0 of tIjAb amplitudes:       0.298 (MW) /      2.384 (MB)
	Size of irrep 1 of tIjAb amplitudes:       0.143 (MW) /      1.147 (MB)
	Total:                                     0.441 (MW) /      3.531 (MB)

	Nuclear Rep. energy          =    162.05427183216707
	SCF energy                   =  -1394.31349357675936
	One-electron energy          =    -55.87764668947028
	Two-electron (AA) energy     =      6.08230649572609
	Two-electron (BB) energy     =      4.34771082477858
	Two-electron (AB) energy     =     14.33039441968759
	Two-electron energy          =     24.76041174019226
	Reference energy             =  -1394.31349357676572

*** tstop() called on d3-2.compute.lan at Fri Mar  5 17:00:32 2021
Module time:
	user time   =     367.71 seconds =       6.13 minutes
	system time =      34.36 seconds =       0.57 minutes
	total time  =        128 seconds =       2.13 minutes
Total time:
	user time   =     773.12 seconds =      12.89 minutes
	system time =      40.13 seconds =       0.67 minutes
	total time  =        336 seconds =       5.60 minutes
            **************************
            *                        *
            *        CCENERGY        *
            *                        *
            **************************

    Nuclear Rep. energy (wfn)     =  162.054271832167075
    SCF energy          (wfn)     = -1394.313493576759356
    Reference energy    (file100) = -1394.313493576765723

    Input parameters:
    -----------------
    Wave function   =     CCSD_T
    Reference wfn   =     UHF
    Brueckner       =     No
    Memory (Mbytes) =     46000.0
    Maxiter         =     50
    R_Convergence   =     1.0e-10
    E_Convergence   =     1.0e-10
    Restart         =     Yes
    DIIS            =     Yes
    AO Basis        =     NONE
    ABCD            =     NEW
    Cache Level     =     2
    Cache Type      =     LRU
    Print Level     =     1
    Num. of threads =     12
    # Amps to Print =     10
    Print MP2 Amps? =     No
    Analyze T2 Amps =     No
    Print Pair Ener =     No
    Local CC        =     No
    SCS-MP2         =     False
    SCSN-MP2        =     False
    SCS-CCSD        =     False

MP2 correlation energy -0.3450278941205835
                Solving CC Amplitude Equations
                ------------------------------
  Iter             Energy              RMS        T1Diag      D1Diag    New D1Diag    D2Diag
  ----     ---------------------    ---------   ----------  ----------  ----------   --------
     0        -0.345027894120584    0.000e+00    0.000000    0.000000    0.000000    0.000000
     1        -0.358596586048605    8.242e-02    0.015911    0.000000    0.000000    0.000000
     2        -0.369253300279421    2.598e-02    0.018535    0.000000    0.000000    0.000000
     3        -0.371438508546219    1.234e-02    0.022070    0.000000    0.000000    0.000000
     4        -0.371323160938967    3.432e-03    0.023147    0.000000    0.000000    0.000000
     5        -0.371288304731593    1.413e-03    0.023428    0.000000    0.000000    0.000000
     6        -0.371281934879625    6.110e-04    0.023515    0.000000    0.000000    0.000000
     7        -0.371278679310906    3.085e-04    0.023543    0.000000    0.000000    0.000000
     8        -0.371279809011642    1.658e-04    0.023547    0.000000    0.000000    0.000000
     9        -0.371283458073639    9.453e-05    0.023548    0.000000    0.000000    0.000000
    10        -0.371282038846116    5.114e-05    0.023550    0.000000    0.000000    0.000000
    11        -0.371281862162536    2.250e-05    0.023550    0.000000    0.000000    0.000000
    12        -0.371281488543079    1.093e-05    0.023551    0.000000    0.000000    0.000000
    13        -0.371281307583450    5.444e-06    0.023550    0.000000    0.000000    0.000000
    14        -0.371281302819985    2.979e-06    0.023550    0.000000    0.000000    0.000000
    15        -0.371281307055777    1.863e-06    0.023550    0.000000    0.000000    0.000000
    16        -0.371281307044972    1.046e-06    0.023550    0.000000    0.000000    0.000000
    17        -0.371281311348862    5.842e-07    0.023550    0.000000    0.000000    0.000000
    18        -0.371281311708038    2.799e-07    0.023550    0.000000    0.000000    0.000000
    19        -0.371281311525165    1.347e-07    0.023550    0.000000    0.000000    0.000000
    20        -0.371281311916334    7.438e-08    0.023550    0.000000    0.000000    0.000000
    21        -0.371281311824695    4.283e-08    0.023550    0.000000    0.000000    0.000000
    22        -0.371281311779660    2.389e-08    0.023550    0.000000    0.000000    0.000000
    23        -0.371281311735718    1.290e-08    0.023550    0.000000    0.000000    0.000000
    24        -0.371281311692757    7.738e-09    0.023550    0.000000    0.000000    0.000000
    25        -0.371281311705509    4.477e-09    0.023550    0.000000    0.000000    0.000000
    26        -0.371281311724885    2.637e-09    0.023550    0.000000    0.000000    0.000000
    27        -0.371281311726301    1.501e-09    0.023550    0.000000    0.000000    0.000000
    28        -0.371281311725661    9.414e-10    0.023550    0.000000    0.000000    0.000000
    29        -0.371281311724155    5.689e-10    0.023550    0.000000    0.000000    0.000000
    30        -0.371281311721810    2.827e-10    0.023550    0.000000    0.000000    0.000000
    31        -0.371281311721538    1.501e-10    0.023550    0.000000    0.000000    0.000000
    32        -0.371281311722207    7.924e-11    0.023550    0.000000    0.000000    0.000000

    Iterations converged.


    Largest TIA Amplitudes:
              5 106        -0.0250801195
              5 116         0.0132805418
              3  31         0.0126045887
              2  48         0.0125142842
              5 107        -0.0112418590
              6 101         0.0111561818
              5 102        -0.0099254627
              2  36         0.0094567037
              2  50        -0.0092507275
              2  28         0.0077885703

    Largest Tia Amplitudes:
              5 117        -0.0246344019
              5 107         0.0211830145
              5 103         0.0187825202
              5 109         0.0147940963
              5 116        -0.0139613577
              3  31         0.0134492043
              2  48         0.0112020055
              1  26        -0.0109530183
              5 108         0.0103834037
              2  29        -0.0101743281

    Largest TIJAB Amplitudes:
      6   2 106  24         0.0150078245
      4   2  31  24         0.0134047185
      6   2 116  24        -0.0125033871
      6   2 106  29        -0.0110736540
      5   3 107  30         0.0103057773
      4   2  46  24        -0.0096622580
      6   2 116  29         0.0095573671
      5   2 116  44        -0.0093740773
      6   4 119  49         0.0092271720
      6   4 106  31        -0.0090034454

    Largest Tijab Amplitudes:
      5   2  97  25        -0.0277202052
      5   2  97  26        -0.0228790117
      5   2  97  30         0.0197535764
      5   4  97  31         0.0168341431
      5   2  97  22         0.0155976647
      5   2  95  25        -0.0153293465
      5   2  97  15         0.0134537985
      4   2  31  25         0.0127710715
      5   2  95  26        -0.0126588775
      5   4  97  36         0.0114805694

    Largest TIjAb Amplitudes:
      2   5  24  97        -0.0363605583
      2   2  24  25        -0.0299641270
      6   5 106  97         0.0273100745
      2   2  24  26        -0.0239390525
      2   2  24  30         0.0209222813
      2   5  22  97        -0.0206139614
      6   5 116  97        -0.0205111115
      2   5  24  95        -0.0200639021
      2   5  15  97         0.0173139609
      2   5  29  97         0.0172445160

    SCF energy       (wfn)                    = -1394.313493576759356
    Reference energy (file100)                = -1394.313493576765723

    Opposite-spin MP2 correlation energy      =   -0.257344858988445
    Same-spin MP2 correlation energy          =   -0.087683035132138
    MP2 correlation energy                    =   -0.345027894120584
      * MP2 total energy                      = -1394.658521470886399

    Opposite-spin CCSD correlation energy     =   -0.289625418625061
    Same-spin CCSD correlation energy         =   -0.081655893097146
    CCSD correlation energy                   =   -0.371281311722207
      * CCSD total energy                     = -1394.684774888487937

            **************************
            *                        *
            *        CCTRIPLES       *
            *                        *
            **************************


    Wave function   =    CCSD_T
    Reference wfn   =      UHF

    Nuclear Rep. energy (wfn)                =  162.054271832167075
    SCF energy          (wfn)                = -1394.313493576759356
    Reference energy    (file100)            = -1394.313493576765723
    CCSD energy         (file100)            =   -0.371281311722207
    Total CCSD energy   (file100)            = -1394.684774888487937

    Number of ijk index combinations:
    Spin Case AAA:                                  35
    Spin Case BBB:                                  20
    Spin Case AAB:                                 126
    Spin Case ABB:                                 105
    AAA (T) energy                             =   -0.000563591522640
    BBB (T) energy                             =   -0.000656354512594
    AAB (T) energy                             =   -0.010572225984687
    ABB (T) energy                             =   -0.010295507892290
    (T) energy                                   =   -0.022087679912212
      * CCSD(T) total energy                     = -1394.706862568400084

Stephenergy -1394.7068625684
    Psi4 stopped on: Friday, 05 March 2021 05:03PM
    Psi4 wall time for execution: 0:08:58.02

*** Psi4 exiting successfully. Buy a developer a beer!
