
    -----------------------------------------------------------------------
          Psi4: An Open-Source Ab Initio Electronic Structure Package
                               Psi4 1.3.2 release

                         Git: Rev {HEAD} ecbda83 


    R. M. Parrish, L. A. Burns, D. G. A. Smith, A. C. Simmonett,
    A. E. DePrince III, E. G. Hohenstein, U. Bozkaya, A. Yu. Sokolov,
    R. Di Remigio, R. M. Richard, J. F. Gonthier, A. M. James,
    H. R. McAlexander, A. Kumar, M. Saitow, X. Wang, B. P. Pritchard,
    P. Verma, H. F. Schaefer III, K. Patkowski, R. A. King, E. F. Valeev,
    F. A. Evangelista, J. M. Turney, T. D. Crawford, and C. D. Sherrill,
    J. Chem. Theory Comput. 13(7) pp 3185--3197 (2017).
    (doi: 10.1021/acs.jctc.7b00174)


                         Additional Contributions by
    P. Kraus, H. Kruse, M. H. Lechner, M. C. Schieber, R. A. Shaw,
    A. Alenaizan, R. Galvelis, Z. L. Glick, S. Lehtola, and J. P. Misiewicz

    -----------------------------------------------------------------------


    Psi4 started on: Friday, 05 March 2021 05:40PM

    Process ID: 1257
    Host:       c5-8.compute.lan
    PSIDATADIR: /apps/gb/PSI4/1.3.2/share/psi4
    Memory:     500.0 MiB
    Threads:    12
    
  ==> Input File <==

--------------------------------------------------------------------------
memory 46 GB

basis jerome {
assign pot
assign S aug-cc-pV(T+d)Z

[pot]
spherical
****
 K  0
 S 23 1.00
    2.709796E+07     4.136110E-07
    3.592856E+06     3.860330E-06
    7.222638E+05     2.394640E-05
    1.833976E+05     1.157540E-04
    5.464812E+04     4.697010E-04
    1.830913E+04     1.673720E-03
    6.712501E+03     5.370450E-03
    2.643719E+03     1.572510E-02
    1.103835E+03     4.193360E-02
    4.836777E+02     9.987620E-02
    2.206245E+02     2.019680E-01
    1.041117E+02     3.146270E-01
    5.052749E+01     3.107540E-01
    2.485247E+01     1.421920E-01
    1.128102E+01     1.658490E-02
    5.510166E+00    -2.759760E-04
    2.706914E+00     5.158310E-04
    1.122807E+00    -2.268950E-04
    5.236385E-01     6.652980E-05
    2.355180E-01    -3.685150E-05
    4.157977E-02     1.925250E-05
    2.555456E-02    -2.108420E-05
    1.471495E-02     7.044600E-06
 S 23 1.00
    2.709796E+07    -1.188290E-07
    3.592856E+06    -1.108550E-06
    7.222638E+05    -6.881230E-06
    1.833976E+05    -3.324150E-05
    5.464812E+04    -1.350850E-04
    1.830913E+04    -4.814570E-04
    6.712501E+03    -1.552620E-03
    2.643719E+03    -4.578330E-03
    1.103835E+03    -1.247930E-02
    4.836777E+02    -3.094650E-02
    2.206245E+02    -6.855530E-02
    1.041117E+02    -1.268300E-01
    5.052749E+01    -1.745020E-01
    2.485247E+01    -9.089560E-02
    1.128102E+01     2.506960E-01
    5.510166E+00     5.589630E-01
    2.706914E+00     3.284370E-01
    1.122807E+00     3.392170E-02
    5.236385E-01    -2.100280E-03
    2.355180E-01     1.383960E-03
    4.157977E-02    -5.315630E-04
    2.555456E-02     5.770310E-04
    1.471495E-02    -1.931440E-04
 S 23 1.00
    2.709796E+07     3.917470E-08
    3.592856E+06     3.650640E-07
    7.222638E+05     2.269460E-06
    1.833976E+05     1.094290E-05
    5.464812E+04     4.457360E-05
    1.830913E+04     1.584480E-04
    6.712501E+03     5.128440E-04
    2.643719E+03     1.507690E-03
    1.103835E+03     4.136940E-03
    4.836777E+02     1.024690E-02
    2.206245E+02     2.306520E-02
    1.041117E+02     4.308900E-02
    5.052749E+01     6.238120E-02
    2.485247E+01     3.270420E-02
    1.128102E+01    -1.021980E-01
    5.510166E+00    -3.317970E-01
    2.706914E+00    -3.030100E-01
    1.122807E+00     3.098410E-01
    5.236385E-01     6.732700E-01
    2.355180E-01     2.812200E-01
    4.157977E-02     9.376240E-03
    2.555456E-02    -6.955720E-03
    1.471495E-02     2.069460E-03
 S 23 1.00
    2.709796E+07    -7.564440E-09
    3.592856E+06    -7.055390E-08
    7.222638E+05    -4.380820E-07
    1.833976E+05    -2.115540E-06
    5.464812E+04    -8.601300E-06
    1.830913E+04    -3.064440E-05
    6.712501E+03    -9.892550E-05
    2.643719E+03    -2.917760E-04
    1.103835E+03    -7.977860E-04
    4.836777E+02    -1.985820E-03
    2.206245E+02    -4.449740E-03
    1.041117E+02    -8.390260E-03
    5.052749E+01    -1.206000E-02
    2.485247E+01    -6.568410E-03
    1.128102E+01     2.061430E-02
    5.510166E+00     6.770060E-02
    2.706914E+00     6.639570E-02
    1.122807E+00    -8.237770E-02
    5.236385E-01    -1.727150E-01
    2.355180E-01    -2.310290E-01
    4.157977E-02     5.090040E-01
    2.555456E-02     3.472180E-01
    1.471495E-02     2.809620E-01
 S 1 1.00
    2.555456E-02     1.000000E+00
 S 1 1.00
    1.471495E-02     1.000000E+00
 S 1 1.00
    8.470000E-03     1.000000E+00
 P 16 1.00
    9.533309E+03     4.212010E-05
    1.852081E+03     5.068300E-04
    5.464251E+02     3.311700E-03
    1.966947E+02     1.536840E-02
    7.964112E+01     5.457060E-02
    3.488324E+01     1.473880E-01
    1.604479E+01     2.879240E-01
    7.575632E+00     3.750810E-01
    3.672548E+00     2.545160E-01
    1.771130E+00     6.059280E-02
    8.515199E-01     2.508370E-03
    4.016017E-01     6.688870E-04
    1.851933E-01    -1.486150E-04
    5.523390E-02     4.936010E-05
    2.431085E-02    -3.513850E-05
    1.080339E-02     1.171450E-05
 P 16 1.00
    9.533309E+03    -1.280760E-05
    1.852081E+03    -1.547870E-04
    5.464251E+02    -1.010940E-03
    1.966947E+02    -4.738330E-03
    7.964112E+01    -1.703260E-02
    3.488324E+01    -4.754130E-02
    1.604479E+01    -9.560810E-02
    7.575632E+00    -1.337000E-01
    3.672548E+00    -7.425060E-02
    1.771130E+00     1.646810E-01
    8.515199E-01     4.057630E-01
    4.016017E-01     4.113600E-01
    1.851933E-01     1.734240E-01
    5.523390E-02     1.253640E-02
    2.431085E-02    -3.267140E-03
    1.080339E-02     1.039680E-03
 P 16 1.00
    9.533309E+03     1.764010E-06
    1.852081E+03     2.124880E-05
    5.464251E+02     1.392500E-04
    1.966947E+02     6.509140E-04
    7.964112E+01     2.349940E-03
    3.488324E+01     6.547470E-03
    1.604479E+01     1.326270E-02
    7.575632E+00     1.848520E-02
    3.672548E+00     1.025530E-02
    1.771130E+00    -2.652150E-02
    8.515199E-01    -6.086460E-02
    4.016017E-01    -7.474220E-02
    1.851933E-01    -4.870880E-02
    5.523390E-02     2.245720E-01
    2.431085E-02     5.839280E-01
    1.080339E-02     2.980960E-01
 P 1 1.00
    5.523390E-02     1.000000E+00
 P 1 1.00
    1.080339E-02     1.000000E+00
 P 1 1.00
    4.800000E-03     1.000000E+00
 D 6 1.00
    5.670903E+00     8.285900E-03
    1.459042E+00     2.332530E-02
    5.431827E-01     4.878080E-02
    1.346875E-01     7.349020E-02
    5.516013E-02     2.387630E-01
    1.501876E-02     8.253200E-01
 D 1 1.00
    5.516013E-02     1.000000E+00
 D 1 1.00
    1.501876E-02     1.000000E+00
 D 1 1.00
    6.010000E-03     1.000000E+00
 F 1 1.00
    8.493750E-02     1.000000E+00
 F 1 1.00
    3.398000E-02     1.000000E+00
 ****
}

molecule  {
0 2
S   -1.195436544288    1.038876027091    0.000000000000
S   -1.195232003725   -1.038747882020    0.000000000000
K    1.961687731072   -0.000105150760    0.000000000000
}
set {
basis jerome
reference uhf
g_convergence gau_verytight
e_convergence 10
scf_type pk
freeze_core true
geom_maxiter 100
}

set ccenergy {
e_convergence 10
r_convergence 10
}

e = energy('ccsd(t)')

print_out('Stephenergy {}'.format(e))

--------------------------------------------------------------------------

  Memory set to  42.841 GiB by Python driver.

*** tstart() called on c5-8.compute.lan
*** at Fri Mar  5 17:40:05 2021

   => Loading Basis Set <=

    Name: JEROME
    Role: ORBITAL
    Keyword: BASIS
    atoms 1-2 entry S          line   928 file /apps/gb/PSI4/1.3.2/share/psi4/basis/aug-cc-pv_tpd_z.gbs 
    atoms 3   entry K          line     5 inputblock pot 


         ---------------------------------------------------------
                                   SCF
               by Justin Turney, Rob Parrish, Andy Simmonett
                          and Daniel G. A. Smith
                              UHF Reference
                       12 Threads,  43869 MiB Core
         ---------------------------------------------------------

  ==> Geometry <==

    Molecular point group: cs
    Full point group: Cs

    Geometry (in Angstrom), charge = 0, multiplicity = 2:

       Center              X                  Y                   Z               Mass       
    ------------   -----------------  -----------------  -----------------  -----------------
         S           -1.195436544288     1.038876027091     0.000000000000    31.972071174400
         S           -1.195232003725    -1.038747882020     0.000000000000    31.972071174400
         K            1.961687731072    -0.000105150760     0.000000000000    38.963706486400

  Running in cs symmetry.

  Rotational constants: A =      0.24430  B =      0.06986  C =      0.05433 [cm^-1]
  Rotational constants: A =   7323.90268  B =   2094.35089  C =   1628.62701 [MHz]
  Nuclear repulsion =  162.010328404964042

  Charge       = 0
  Multiplicity = 2
  Electrons    = 51
  Nalpha       = 26
  Nbeta        = 25

  ==> Algorithm <==

  SCF Algorithm Type is PK.
  DIIS enabled.
  MOM disabled.
  Fractional occupation disabled.
  Guess Type is SAD.
  Energy threshold   = 1.00e-10
  Density threshold  = 1.00e-08
  Integral threshold = 0.00e+00

  ==> Primary Basis <==

  Basis Set: JEROME
    Blend: AUG-CC-PV(T+D)Z + POT
    Number of shells: 53
    Number of basis function: 169
    Number of Cartesian functions: 199
    Spherical Harmonics?: true
    Max angular momentum: 3

  ==> Pre-Iterations <==

   -------------------------------------------------------
    Irrep   Nso     Nmo     Nalpha   Nbeta   Ndocc  Nsocc
   -------------------------------------------------------
     A'       111     111       0       0       0       0
     A"        58      58       0       0       0       0
   -------------------------------------------------------
    Total     169     169      26      25      25       1
   -------------------------------------------------------

  ==> Integral Setup <==

  Using in-core PK algorithm.
   Calculation information:
      Number of atoms:                   3
      Number of AO shells:              53
      Number of primitives:            287
      Number of atomic orbitals:       199
      Number of basis functions:       169

      Integral cutoff                 1.00e-12
      Number of threads:                12

  Performing in-core PK
  Using 206367590 doubles for integral storage.
  We computed 1579721 shell quartets total.
  Whereas there are 1024596 unique shell quartets.
    54.18 percent of shell quartets recomputed by reordering.

  ==> DiskJK: Disk-Based J/K Matrices <==

    J tasked:                  Yes
    K tasked:                  Yes
    wK tasked:                  No
    Memory [MiB]:            32901
    Schwarz Cutoff:          1E-12

    OpenMP threads:             12

  Minimum eigenvalue in the overlap matrix is 2.3870771479E-04.
  Using Symmetric Orthogonalization.

  SCF Guess: Superposition of Atomic Densities via on-the-fly atomic UHF.

  ==> Iterations <==

                        Total Energy        Delta E     RMS |[F,P]|

   @UHF iter SAD: -1393.47712259142918   -1.39348e+03   0.00000e+00 
   @UHF iter   1: -1394.26885284748414   -7.91730e-01   1.99475e-03 DIIS
   @UHF iter   2: -1394.30793850102827   -3.90857e-02   7.13575e-04 DIIS
   @UHF iter   3: -1394.31221392321186   -4.27542e-03   2.20626e-04 DIIS
   @UHF iter   4: -1394.31318213111604   -9.68208e-04   9.43470e-05 DIIS
   @UHF iter   5: -1394.31338567691387   -2.03546e-04   2.45947e-05 DIIS
   @UHF iter   6: -1394.31340427606938   -1.85992e-05   7.25705e-06 DIIS
   @UHF iter   7: -1394.31340618941204   -1.91334e-06   2.84577e-06 DIIS
   @UHF iter   8: -1394.31340651419009   -3.24778e-07   1.48171e-06 DIIS
   @UHF iter   9: -1394.31340662872321   -1.14533e-07   8.59487e-07 DIIS
   @UHF iter  10: -1394.31340667872882   -5.00056e-08   5.18872e-07 DIIS
   @UHF iter  11: -1394.31340669675092   -1.80221e-08   3.34242e-07 DIIS
   @UHF iter  12: -1394.31340670737131   -1.06204e-08   1.76188e-07 DIIS
   @UHF iter  13: -1394.31340671088219   -3.51088e-09   5.45348e-08 DIIS
   @UHF iter  14: -1394.31340671112412   -2.41926e-10   2.10596e-08 DIIS
   @UHF iter  15: -1394.31340671114958   -2.54659e-11   1.28455e-08 DIIS
   @UHF iter  16: -1394.31340671116368   -1.40972e-11   1.01113e-08 DIIS
   @UHF iter  17: -1394.31340671117232   -8.64020e-12   8.99305e-09 DIIS
  Energy and wave function converged.


  ==> Post-Iterations <==

   @Spin Contamination Metric:   3.678994582E-02
   @S^2 Expected:                7.500000000E-01
   @S^2 Observed:                7.867899458E-01
   @S   Expected:                5.000000000E-01
   @S   Observed:                5.000000000E-01

    Orbital Energies [Eh]
    ---------------------

    Alpha Occupied:                                                       

       1Ap  -133.559635     2Ap   -91.906703     3Ap   -91.906691  
       4Ap   -14.515891     1App  -11.545908     5Ap   -11.545825  
       6Ap   -11.545752     7Ap    -8.904207     8Ap    -8.904037  
       2App   -6.593192     3App   -6.593171     9Ap    -6.583084  
      10Ap    -6.582718    11Ap    -6.581529    12Ap    -6.581505  
      13Ap    -1.773858     4App   -0.982953    14Ap    -0.981737  
      15Ap    -0.981377    16Ap    -0.944442    17Ap    -0.757660  
       5App   -0.413967    18Ap    -0.402744    19Ap    -0.386108  
       6App   -0.296129    20Ap    -0.260708  

    Alpha Virtual:                                                        

      21Ap    -0.019896     7App    0.002173    22Ap     0.002631  
      23Ap     0.005694    24Ap     0.016457     8App    0.017141  
      25Ap     0.017264     9App    0.019895    26Ap     0.020823  
      27Ap     0.022362    10App    0.022865    28Ap     0.028726  
      29Ap     0.032856    30Ap     0.051012    11App    0.051140  
      31Ap     0.055474    12App    0.058850    32Ap     0.061864  
      13App    0.073587    33Ap     0.074484    34Ap     0.088214  
      35Ap     0.104502    36Ap     0.108382    37Ap     0.125501  
      14App    0.125672    38Ap     0.128647    39Ap     0.128774  
      15App    0.129774    16App    0.133150    40Ap     0.133836  
      41Ap     0.150445    17App    0.152720    42Ap     0.153540  
      18App    0.167040    43Ap     0.170517    44Ap     0.174853  
      19App    0.178459    20App    0.186401    45Ap     0.206674  
      46Ap     0.207623    47Ap     0.221439    21App    0.233527  
      48Ap     0.244619    49Ap     0.267895    50Ap     0.310658  
      51Ap     0.310909    22App    0.337510    52Ap     0.350657  
      53Ap     0.362725    23App    0.375765    24App    0.381777  
      54Ap     0.383542    25App    0.386400    55Ap     0.391626  
      56Ap     0.391647    26App    0.394179    57Ap     0.406269  
      27App    0.407375    58Ap     0.428268    59Ap     0.431050  
      60Ap     0.439842    28App    0.452899    29App    0.456761  
      61Ap     0.462993    30App    0.466720    62Ap     0.488114  
      63Ap     0.514819    64Ap     0.537754    31App    0.666908  
      32App    0.703429    65Ap     0.709221    33App    0.711235  
      66Ap     0.730776    67Ap     0.747029    68Ap     0.785638  
      34App    0.801272    69Ap     0.814042    70Ap     0.815380  
      35App    0.850826    71Ap     0.856529    72Ap     0.870908  
      36App    0.892093    73Ap     0.909484    37App    0.914739  
      74Ap     0.947693    75Ap     0.948316    76Ap     0.962190  
      38App    1.012346    77Ap     1.018870    39App    1.048239  
      78Ap     1.052851    79Ap     1.078803    40App    1.161652  
      80Ap     1.196949    81Ap     1.197485    41App    1.202422  
      82Ap     1.218471    42App    1.363417    83Ap     1.395053  
      84Ap     1.461781    85Ap     1.677141    43App    2.031354  
      86Ap     2.036034    44App    2.064559    87Ap     2.067245  
      45App    2.078956    88Ap     2.096664    89Ap     2.132455  
      46App    2.214710    90Ap     2.284327    47App    2.287249  
      91Ap     2.291749    92Ap     2.312147    93Ap     2.372339  
      48App    2.379088    94Ap     2.413136    49App    2.421743  
      95Ap     2.450585    96Ap     2.473403    50App    2.485649  
      51App    2.504873    52App    2.560978    97Ap     2.581282  
      53App    2.584695    98Ap     2.668580    99Ap     2.685451  
     100Ap     2.707278   101Ap     2.725565    54App    2.867152  
     102Ap     2.898368   103Ap     3.988880   104Ap     4.954696  
     105Ap     5.749994    55App    7.416935   106Ap     7.419718  
     107Ap     7.436002    56App    7.436283    57App    7.438675  
     108Ap     7.461683    58App    7.509493   109Ap     7.532168  
     110Ap     7.596810   111Ap     7.607971  

    Beta Occupied:                                                        

       1Ap  -133.559658     2Ap   -91.901113     3Ap   -91.901102  
       4Ap   -14.515922     1App  -11.545942     5Ap   -11.545860  
       6Ap   -11.545782     7Ap    -8.898131     8Ap    -8.897923  
       9Ap    -6.580383    10Ap    -6.580003    11Ap    -6.577986  
      12Ap    -6.577964     2App   -6.568720     3App   -6.568685  
      13Ap    -1.774019     4App   -0.983113    14Ap    -0.981884  
      15Ap    -0.980407    16Ap    -0.906129    17Ap    -0.687046  
      18Ap    -0.386841    19Ap    -0.377574     5App   -0.289181  
      20Ap    -0.247710  

    Beta Virtual:                                                         

      21Ap    -0.019907     6App    0.002203    22Ap     0.002644  
      23Ap     0.005683    24Ap     0.016452     7App    0.016970  
      25Ap     0.017265     8App    0.019937    26Ap     0.020847  
      27Ap     0.022412     9App    0.022958    28Ap     0.028728  
      29Ap     0.032765    10App    0.046972    30Ap     0.050979  
      31Ap     0.055744    11App    0.059305    32Ap     0.061831  
      12App    0.064990    13App    0.073770    33Ap     0.074678  
      34Ap     0.087875    35Ap     0.104285    36Ap     0.110094  
      37Ap     0.125702    14App    0.125788    38Ap     0.128608  
      39Ap     0.129626    15App    0.129696    40Ap     0.133881  
      16App    0.134980    41Ap     0.150304    42Ap     0.153791  
      17App    0.164156    18App    0.171857    43Ap     0.172082  
      44Ap     0.174532    19App    0.183756    20App    0.187117  
      45Ap     0.207579    46Ap     0.212176    47Ap     0.224215  
      21App    0.233745    48Ap     0.245234    49Ap     0.267065  
      50Ap     0.313728    51Ap     0.317270    52Ap     0.351906  
      22App    0.356501    53Ap     0.366892    54Ap     0.383854  
      23App    0.384535    24App    0.388634    25App    0.389652  
      55Ap     0.391531    56Ap     0.395653    26App    0.396028  
      27App    0.407417    57Ap     0.408625    58Ap     0.430928  
      59Ap     0.433701    60Ap     0.442862    28App    0.462611  
      61Ap     0.468768    29App    0.470013    30App    0.475446  
      62Ap     0.488997    63Ap     0.518427    64Ap     0.538475  
      31App    0.686440    65Ap     0.716971    66Ap     0.736554  
      32App    0.739652    33App    0.741845    67Ap     0.749475  
      68Ap     0.798424    69Ap     0.814303    34App    0.818320  
      70Ap     0.831403    71Ap     0.868847    35App    0.885441  
      72Ap     0.895438    73Ap     0.915088    36App    0.921819  
      37App    0.925169    74Ap     0.951405    75Ap     0.960437  
      76Ap     0.966015    38App    1.024766    77Ap     1.029910  
      78Ap     1.054776    39App    1.058812    79Ap     1.085144  
      40App    1.173829    80Ap     1.196653    81Ap     1.206935  
      41App    1.208987    82Ap     1.220576    42App    1.379578  
      83Ap     1.397084    84Ap     1.474670    85Ap     1.692573  
      43App    2.046581    86Ap     2.050755    44App    2.079610  
      87Ap     2.082271    45App    2.094885    88Ap     2.098836  
      89Ap     2.134649    46App    2.236753    90Ap     2.289171  
      91Ap     2.293898    47App    2.304024    92Ap     2.314935  
      93Ap     2.385381    48App    2.391810    94Ap     2.425207  
      49App    2.454122    95Ap     2.461915    96Ap     2.495761  
      50App    2.508661    51App    2.531923    52App    2.585541  
      97Ap     2.597478    53App    2.600968    98Ap     2.674111  
      99Ap     2.689961   100Ap     2.711752   101Ap     2.731369  
      54App    2.888256   102Ap     2.901081   103Ap     3.992385  
     104Ap     4.965865   105Ap     5.760335    55App    7.423133  
     106Ap     7.426042   107Ap     7.442535    56App    7.442804  
      57App    7.444734   108Ap     7.462761    58App    7.515453  
     109Ap     7.533048   110Ap     7.598747   111Ap     7.609857  

    Final Occupation by Irrep:
             Ap   App 
    DOCC [    20,    5 ]
    SOCC [     0,    1 ]

  @UHF Final Energy: -1394.31340671117232

   => Energetics <=

    Nuclear Repulsion Energy =            162.0103284049640422
    One-Electron Energy =               -2249.2368587597811711
    Two-Electron Energy =                 692.9131236436447807
    Total Energy =                      -1394.3134067111723198

  UHF NO Occupations:
  HONO-2 :   20 Ap 1.9974863
  HONO-1 :    5App 1.9868949
  HONO-0 :    6App 1.0000000
  LUNO+0 :    7App 0.0131051
  LUNO+1 :   21 Ap 0.0025137
  LUNO+2 :   22 Ap 0.0022666
  LUNO+3 :   23 Ap 0.0003116


Computation Completed


Properties will be evaluated at   0.000000,   0.000000,   0.000000 [a0]

Properties computed using the SCF density matrix

  Nuclear Dipole Moment: [e a0]
     X:    -1.8493      Y:     0.0001      Z:     0.0000

  Electronic Dipole Moment: [e a0]
     X:     6.6347      Y:    -0.0002      Z:     0.0000

  Dipole Moment: [e a0]
     X:     4.7854      Y:    -0.0001      Z:     0.0000     Total:     4.7854

  Dipole Moment: [D]
     X:    12.1632      Y:    -0.0002      Z:     0.0000     Total:    12.1632


*** tstop() called on c5-8.compute.lan at Fri Mar  5 17:41:07 2021
Module time:
	user time   =     233.23 seconds =       3.89 minutes
	system time =       1.71 seconds =       0.03 minutes
	total time  =         62 seconds =       1.03 minutes
Total time:
	user time   =     233.23 seconds =       3.89 minutes
	system time =       1.71 seconds =       0.03 minutes
	total time  =         62 seconds =       1.03 minutes
 MINTS: Wrapper to libmints.
   by Justin Turney

   Calculation information:
      Number of threads:                12
      Number of atoms:                   3
      Number of AO shells:              53
      Number of SO shells:              53
      Number of primitives:            287
      Number of atomic orbitals:       199
      Number of basis functions:       169

      Number of irreps:                  2
      Integral cutoff                 0.00e+00
      Number of functions per irrep: [ 111   58 ]

 OEINTS: Overlap, kinetic, potential, dipole, and quadrupole integrals
         stored in file 35.

      Computing two-electron integrals...done
      Computed 51049707 non-zero two-electron integrals.
        Stored in file 33.


*** tstart() called on c5-8.compute.lan
*** at Fri Mar  5 17:42:51 2021


	Wfn Parameters:
	--------------------
	Wavefunction         = CCSD_T
	Number of irreps     = 2
	Number of MOs        = 169
	Number of active MOs = 150
	AO-Basis             = NONE
	Semicanonical        = false
	Reference            = UHF
	Print Level          = 1

	IRREP	# MOs	# FZDC	# DOCC	# SOCC	# VIRT	# FZVR
	-----	-----	------	------	------	------	------
	 Ap	   111	    15	    5	    0	    91	    0
	 App	   58	    4	    1	    1	    52	    0
	Transforming integrals...
	IWL integrals will be deleted.
	(OO|OO)...
	Presorting SO-basis two-electron integrals.
	Sorting File: SO Ints (nn|nn) nbuckets = 1
	Transforming the one-electron integrals and constructing Fock matrices
	Starting AA/AB first half-transformation.
	Sorting AA/AB half-transformed integrals.
	Starting BB first half-transformation.
	Sorting BB half-transformed integrals.
	First half integral transformation complete.
	Starting AA second half-transformation.
	Starting AB second half-transformation.
	Starting BB second half-transformation.
	Two-electron integral transformation complete.
	(OO|OV)...
	Starting AA second half-transformation.
	Starting AB second half-transformation.
	Starting BB second half-transformation.
	Two-electron integral transformation complete.
	(OO|VV)...
	Starting AA second half-transformation.
	Starting AB second half-transformation.
	Starting BB second half-transformation.
	Two-electron integral transformation complete.
	(OV|OO)...
	Starting AA/AB first half-transformation.
	Sorting AA/AB half-transformed integrals.
	Starting BB first half-transformation.
	Sorting BB half-transformed integrals.
	First half integral transformation complete.
	Starting AA second half-transformation.
	Starting AB second half-transformation.
	Starting BB second half-transformation.
	Two-electron integral transformation complete.
	(OV|OV)...
	Starting AA second half-transformation.
	Starting AB second half-transformation.
	Starting BB second half-transformation.
	Two-electron integral transformation complete.
	(OV|VV)...
	Starting AA second half-transformation.
	Starting AB second half-transformation.
	Starting BB second half-transformation.
	Two-electron integral transformation complete.
	(VV|OO)...
	Starting AA/AB first half-transformation.
	Sorting AA/AB half-transformed integrals.
	Starting BB first half-transformation.
	Sorting BB half-transformed integrals.
	First half integral transformation complete.
	Starting AA second half-transformation.
	Starting AB second half-transformation.
	Starting BB second half-transformation.
	Two-electron integral transformation complete.
	(VV|OV)...
	Starting AA second half-transformation.
	Starting AB second half-transformation.
	Starting BB second half-transformation.
	Two-electron integral transformation complete.
	(VV|VV)...
	Starting AA second half-transformation.
	Starting AB second half-transformation.
	Starting BB second half-transformation.
	Two-electron integral transformation complete.
	Frozen core energy     =  -1525.20983001391846

	Size of irrep 0 of <AB|CD> integrals:     29.387 (MW) /    235.098 (MB)
	Size of irrep 1 of <AB|CD> integrals:     22.392 (MW) /    179.135 (MB)
	Total:                                    51.779 (MW) /    414.233 (MB)

	Size of irrep 0 of <ab|cd> integrals:     29.954 (MW) /    239.630 (MB)
	Size of irrep 1 of <ab|cd> integrals:     23.261 (MW) /    186.091 (MB)
	Total:                                    53.215 (MW) /    425.720 (MB)

	Size of irrep 0 of <Ab|Cd> integrals:    121.815 (MW) /    974.523 (MB)
	Size of irrep 1 of <Ab|Cd> integrals:     91.298 (MW) /    730.384 (MB)
	Total:                                   213.113 (MW) /   1704.907 (MB)

	Size of irrep 0 of <IA|BC> integrals:      6.141 (MW) /     49.125 (MB)
	Size of irrep 1 of <IA|BC> integrals:      4.183 (MW) /     33.465 (MB)
	Total:                                    10.324 (MW) /     82.590 (MB)

	Size of irrep 0 of <ia|bc> integrals:      5.634 (MW) /     45.070 (MB)
	Size of irrep 1 of <ia|bc> integrals:      3.434 (MW) /     27.472 (MB)
	Total:                                     9.068 (MW) /     72.542 (MB)

	Size of irrep 0 of <Ia|Bc> integrals:      6.192 (MW) /     49.534 (MB)
	Size of irrep 1 of <Ia|Bc> integrals:      4.271 (MW) /     34.169 (MB)
	Total:                                    10.463 (MW) /     83.703 (MB)

	Size of irrep 0 of <iA|bC> integrals:      5.596 (MW) /     44.766 (MB)
	Size of irrep 1 of <iA|bC> integrals:      3.354 (MW) /     26.830 (MB)
	Total:                                     8.950 (MW) /     71.597 (MB)

	Size of irrep 0 of tIjAb amplitudes:       0.298 (MW) /      2.384 (MB)
	Size of irrep 1 of tIjAb amplitudes:       0.143 (MW) /      1.147 (MB)
	Total:                                     0.441 (MW) /      3.531 (MB)

	Nuclear Rep. energy          =    162.01032840496404
	SCF energy                   =  -1394.31340671117232
	One-electron energy          =    -55.87157226471983
	Two-electron (AA) energy     =      6.08187630782889
	Two-electron (BB) energy     =      4.34674329794807
	Two-electron (AB) energy     =     14.32904755669636
	Two-electron energy          =     24.75766716247332
	Reference energy             =  -1394.31340671120097

*** tstop() called on c5-8.compute.lan at Fri Mar  5 17:44:41 2021
Module time:
	user time   =     198.09 seconds =       3.30 minutes
	system time =      33.09 seconds =       0.55 minutes
	total time  =        110 seconds =       1.83 minutes
Total time:
	user time   =     537.79 seconds =       8.96 minutes
	system time =      36.30 seconds =       0.60 minutes
	total time  =        276 seconds =       4.60 minutes
            **************************
            *                        *
            *        CCENERGY        *
            *                        *
            **************************

    Nuclear Rep. energy (wfn)     =  162.010328404964042
    SCF energy          (wfn)     = -1394.313406711172320
    Reference energy    (file100) = -1394.313406711200969

    Input parameters:
    -----------------
    Wave function   =     CCSD_T
    Reference wfn   =     UHF
    Brueckner       =     No
    Memory (Mbytes) =     46000.0
    Maxiter         =     50
    R_Convergence   =     1.0e-10
    E_Convergence   =     1.0e-10
    Restart         =     Yes
    DIIS            =     Yes
    AO Basis        =     NONE
    ABCD            =     NEW
    Cache Level     =     2
    Cache Type      =     LRU
    Print Level     =     1
    Num. of threads =     12
    # Amps to Print =     10
    Print MP2 Amps? =     No
    Analyze T2 Amps =     No
    Print Pair Ener =     No
    Local CC        =     No
    SCS-MP2         =     False
    SCSN-MP2        =     False
    SCS-CCSD        =     False

MP2 correlation energy -0.3450917611348933
                Solving CC Amplitude Equations
                ------------------------------
  Iter             Energy              RMS        T1Diag      D1Diag    New D1Diag    D2Diag
  ----     ---------------------    ---------   ----------  ----------  ----------   --------
     0        -0.345091761134893    0.000e+00    0.000000    0.000000    0.000000    0.000000
     1        -0.358657153966750    8.249e-02    0.015926    0.000000    0.000000    0.000000
     2        -0.369322447805520    2.600e-02    0.018550    0.000000    0.000000    0.000000
     3        -0.371511545162037    1.236e-02    0.022089    0.000000    0.000000    0.000000
     4        -0.371396008945381    3.435e-03    0.023168    0.000000    0.000000    0.000000
     5        -0.371361126286817    1.414e-03    0.023450    0.000000    0.000000    0.000000
     6        -0.371354738199989    6.115e-04    0.023537    0.000000    0.000000    0.000000
     7        -0.371351474455373    3.089e-04    0.023564    0.000000    0.000000    0.000000
     8        -0.371352611511772    1.661e-04    0.023569    0.000000    0.000000    0.000000
     9        -0.371356266895713    9.477e-05    0.023570    0.000000    0.000000    0.000000
    10        -0.371354841550631    5.130e-05    0.023572    0.000000    0.000000    0.000000
    11        -0.371354666875898    2.258e-05    0.023571    0.000000    0.000000    0.000000
    12        -0.371354292011924    1.097e-05    0.023572    0.000000    0.000000    0.000000
    13        -0.371354110700460    5.465e-06    0.023572    0.000000    0.000000    0.000000
    14        -0.371354106253073    2.993e-06    0.023572    0.000000    0.000000    0.000000
    15        -0.371354110564788    1.874e-06    0.023572    0.000000    0.000000    0.000000
    16        -0.371354110555766    1.052e-06    0.023572    0.000000    0.000000    0.000000
    17        -0.371354114896519    5.875e-07    0.023572    0.000000    0.000000    0.000000
    18        -0.371354115263291    2.813e-07    0.023572    0.000000    0.000000    0.000000
    19        -0.371354115075573    1.353e-07    0.023572    0.000000    0.000000    0.000000
    20        -0.371354115464650    7.477e-08    0.023572    0.000000    0.000000    0.000000
    21        -0.371354115371371    4.308e-08    0.023572    0.000000    0.000000    0.000000
    22        -0.371354115325842    2.405e-08    0.023572    0.000000    0.000000    0.000000
    23        -0.371354115281027    1.299e-08    0.023572    0.000000    0.000000    0.000000
    24        -0.371354115237958    7.793e-09    0.023572    0.000000    0.000000    0.000000
    25        -0.371354115251069    4.508e-09    0.023572    0.000000    0.000000    0.000000
    26        -0.371354115270550    2.658e-09    0.023572    0.000000    0.000000    0.000000
    27        -0.371354115271934    1.514e-09    0.023572    0.000000    0.000000    0.000000
    28        -0.371354115271301    9.505e-10    0.023572    0.000000    0.000000    0.000000
    29        -0.371354115269756    5.744e-10    0.023572    0.000000    0.000000    0.000000
    30        -0.371354115267381    2.852e-10    0.023572    0.000000    0.000000    0.000000
    31        -0.371354115267113    1.514e-10    0.023572    0.000000    0.000000    0.000000
    32        -0.371354115267790    7.993e-11    0.023572    0.000000    0.000000    0.000000

    Iterations converged.


    Largest TIA Amplitudes:
              5 106        -0.0250807226
              5 116         0.0132568749
              3  31         0.0126029337
              2  48         0.0125267093
              5 107        -0.0112358855
              6 101         0.0111619082
              5 102        -0.0099585508
              2  36         0.0094584459
              2  50        -0.0092331032
              2  28         0.0077851479

    Largest Tia Amplitudes:
              5 117        -0.0246232487
              5 107         0.0212240145
              5 103         0.0188497514
              5 109         0.0147825112
              5 116        -0.0140410575
              3  31         0.0134518294
              2  48         0.0112444748
              1  26        -0.0108671063
              5 108         0.0104089352
              1  25        -0.0101774849

    Largest TIJAB Amplitudes:
      6   2 106  24         0.0150218914
      4   2  31  24         0.0134137119
      6   2 116  24        -0.0124986312
      6   2 106  29        -0.0110577742
      5   3 107  30         0.0103078062
      4   2  46  24        -0.0096715032
      6   2 116  29         0.0095294630
      5   2 116  44        -0.0093836384
      6   4 119  49         0.0092322160
      6   4 106  31        -0.0090001722

    Largest Tijab Amplitudes:
      5   2  97  25        -0.0279105689
      5   2  97  26        -0.0226266267
      5   2  97  30         0.0197089448
      5   4  97  31         0.0168116530
      5   2  97  22         0.0156758215
      5   2  95  25        -0.0155470661
      5   2  97  15         0.0135040185
      4   2  31  25         0.0128423974
      5   2  95  26        -0.0126103781
      5   4  97  36         0.0114498376

    Largest TIjAb Amplitudes:
      2   5  24  97        -0.0364202595
      2   2  24  25        -0.0302471237
      6   5 106  97         0.0272648699
      2   2  24  26        -0.0237317529
      2   2  24  30         0.0209333350
      2   5  22  97        -0.0207245578
      6   5 116  97        -0.0204243307
      2   5  24  95        -0.0202431567
      2   5  15  97         0.0173940780
      2   5  29  97         0.0172143828

    SCF energy       (wfn)                    = -1394.313406711172320
    Reference energy (file100)                = -1394.313406711200969

    Opposite-spin MP2 correlation energy      =   -0.257399854015866
    Same-spin MP2 correlation energy          =   -0.087691907119028
    MP2 correlation energy                    =   -0.345091761134893
      * MP2 total energy                      = -1394.658498472335850

    Opposite-spin CCSD correlation energy     =   -0.289694307458196
    Same-spin CCSD correlation energy         =   -0.081659807809595
    CCSD correlation energy                   =   -0.371354115267790
      * CCSD total energy                     = -1394.684760826468846

            **************************
            *                        *
            *        CCTRIPLES       *
            *                        *
            **************************


    Wave function   =    CCSD_T
    Reference wfn   =      UHF

    Nuclear Rep. energy (wfn)                =  162.010328404964042
    SCF energy          (wfn)                = -1394.313406711172320
    Reference energy    (file100)            = -1394.313406711200969
    CCSD energy         (file100)            =   -0.371354115267790
    Total CCSD energy   (file100)            = -1394.684760826468846

    Number of ijk index combinations:
    Spin Case AAA:                                  35
    Spin Case BBB:                                  20
    Spin Case AAB:                                 126
    Spin Case ABB:                                 105
    AAA (T) energy                             =   -0.000563520330557
    BBB (T) energy                             =   -0.000656810553885
    AAB (T) energy                             =   -0.010577900750443
    ABB (T) energy                             =   -0.010303513002891
    (T) energy                                   =   -0.022101744637777
      * CCSD(T) total energy                     = -1394.706862571106512

Stephenergy -1394.7068625711065
    Psi4 stopped on: Friday, 05 March 2021 05:48PM
    Psi4 wall time for execution: 0:08:08.22

*** Psi4 exiting successfully. Buy a developer a beer!
