
    -----------------------------------------------------------------------
          Psi4: An Open-Source Ab Initio Electronic Structure Package
                               Psi4 1.4a2.dev191 

                         Git: Rev {master} 0ab5346 


    R. M. Parrish, L. A. Burns, D. G. A. Smith, A. C. Simmonett,
    A. E. DePrince III, E. G. Hohenstein, U. Bozkaya, A. Yu. Sokolov,
    R. Di Remigio, R. M. Richard, J. F. Gonthier, A. M. James,
    H. R. McAlexander, A. Kumar, M. Saitow, X. Wang, B. P. Pritchard,
    P. Verma, H. F. Schaefer III, K. Patkowski, R. A. King, E. F. Valeev,
    F. A. Evangelista, J. M. Turney, T. D. Crawford, and C. D. Sherrill,
    J. Chem. Theory Comput. 13(7) pp 3185--3197 (2017).
    (doi: 10.1021/acs.jctc.7b00174)


                         Additional Contributions by
    P. Kraus, H. Kruse, M. H. Lechner, M. C. Schieber, R. A. Shaw,
    A. Alenaizan, R. Galvelis, Z. L. Glick, S. Lehtola, and J. P. Misiewicz

    -----------------------------------------------------------------------


    Psi4 started on: Thursday, 11 February 2021 01:59PM

    Process ID: 22746
    Host:       b1-21.compute.lan
    PSIDATADIR: /apps/gb/PSI4/1.4.0/share/psi4
    Memory:     500.0 MiB
    Threads:    1
    
  ==> Input File <==

--------------------------------------------------------------------------
memory 16 GB

molecule  {
-1 2
S
S 1 r1
S 1 r2 2 a1
S 2 r3 1 a2 3 d1
r1 = 2.051
r2 = 2.024
r3 = 2.024
a1 = 105.1
a2 = 105.1
d1 = 180.0
}

set {
reference uks
basis aug-cc-pvtz
g_convergence gau_verytight
dft_spherical_points 590
dft_radial_points 99
}

optimize('wb97x-d')
frequencies('wb97x-d')

--------------------------------------------------------------------------

  Memory set to  14.901 GiB by Python driver.
gradient() will perform analytic gradient computation.

*** tstart() called on b1-21.compute.lan
*** at Thu Feb 11 13:59:19 2021

   => Loading Basis Set <=

    Name: AUG-CC-PVTZ
    Role: ORBITAL
    Keyword: BASIS
    atoms 1-4 entry S          line   906 file /apps/gb/PSI4/1.4.0/share/psi4/basis/aug-cc-pvtz.gbs 

   => WB97X-D: Empirical Dispersion <=

    Chai and Head-Gordon Dispersion Correction
    Chai, J.-D.; Head-Gordon, M. (2010), J. Chem. Phys., 132: 6615-6620

        s6 =       1.000000


         ---------------------------------------------------------
                                   SCF
               by Justin Turney, Rob Parrish, Andy Simmonett
                          and Daniel G. A. Smith
                              UKS Reference
                        1 Threads,  15258 MiB Core
         ---------------------------------------------------------

  ==> Geometry <==

    Molecular point group: c2h
    Full point group: C2h

    Geometry (in Angstrom), charge = -1, multiplicity = 2:

       Center              X                  Y                   Z               Mass       
    ------------   -----------------  -----------------  -----------------  -----------------
         S            0.000000000000     1.025500000000     0.000000000000    31.972071174400
         S            0.000000000000    -1.025500000000     0.000000000000    31.972071174400
         S           -1.954116604900     1.552761125493     0.000000000000    31.972071174400
         S            1.954116604900    -1.552761125493     0.000000000000    31.972071174400

  Running in c2h symmetry.

  Rotational constants: A =      0.43854  B =      0.03946  C =      0.03621 [cm^-1]
  Rotational constants: A =  13147.07888  B =   1183.12687  C =   1085.44584 [MHz]
  Nuclear repulsion =  310.800725288192780

  Charge       = -1
  Multiplicity = 2
  Electrons    = 65
  Nalpha       = 33
  Nbeta        = 32

  ==> Algorithm <==

  SCF Algorithm Type is DF.
  DIIS enabled.
  MOM disabled.
  Fractional occupation disabled.
  Guess Type is SAD.
  Energy threshold   = 1.00e-08
  Density threshold  = 1.00e-08
  Integral threshold = 0.00e+00

  ==> Primary Basis <==

  Basis Set: AUG-CC-PVTZ
    Blend: AUG-CC-PVTZ
    Number of shells: 64
    Number of basis function: 200
    Number of Cartesian functions: 236
    Spherical Harmonics?: true
    Max angular momentum: 3

  ==> DFT Potential <==

   => Composite Functional: WB97X-D <= 

    wB97X-D Hyb-GGA Exchange-Correlation Functional

    J.-D. Chai and M. Head-Gordon, Phys. Chem. Chem. Phys. 10, 6615 (2008)

    Deriv               =              1
    GGA                 =           TRUE
    Meta                =          FALSE

    Exchange Hybrid     =           TRUE
    MP2 Hybrid          =          FALSE

   => Exchange-Correlation Functionals <=

    1.0000   wB97D range-separated functional

   => Exact (HF) Exchange <=

    0.7780            HF,LR [omega = 0.2000]
    0.2220               HF 

   => Molecular Quadrature <=

    Radial Scheme          =       TREUTLER
    Pruning Scheme         =           NONE
    Nuclear Scheme         =       TREUTLER

    BS radius alpha        =              1
    Pruning alpha          =              1
    Radial Points          =             99
    Spherical Points       =            590
    Total Points           =         225778
    Total Blocks           =           1818
    Max Points             =            256
    Max Functions          =            200
    Weights Tolerance      =       1.00E-15

   => Loading Basis Set <=

    Name: (AUG-CC-PVTZ AUX)
    Role: JKFIT
    Keyword: DF_BASIS_SCF
    atoms 1-4 entry S          line   730 file /apps/gb/PSI4/1.4.0/share/psi4/basis/aug-cc-pvtz-jkfit.gbs 

  ==> Pre-Iterations <==

   -------------------------------------------------------
    Irrep   Nso     Nmo     Nalpha   Nbeta   Ndocc  Nsocc
   -------------------------------------------------------
     Ag        66      66       0       0       0       0
     Bg        34      34       0       0       0       0
     Au        34      34       0       0       0       0
     Bu        66      66       0       0       0       0
   -------------------------------------------------------
    Total     200     200      33      32      32       1
   -------------------------------------------------------

  ==> Integral Setup <==

  ==> DiskDFJK: Density-Fitted J/K Matrices <==

    J tasked:                  Yes
    K tasked:                  Yes
    wK tasked:                 Yes
    Omega:               2.000E-01
    OpenMP threads:              1
    Integrals threads:           1
    Memory [MiB]:            10314
    Algorithm:                Core
    Integral Cache:           NONE
    Schwarz Cutoff:          1E-12
    Fitting Condition:       1E-10

   => Auxiliary Basis Set <=

  Basis Set: (AUG-CC-PVTZ AUX)
    Blend: AUG-CC-PVTZ-JKFIT
    Number of shells: 168
    Number of basis function: 584
    Number of Cartesian functions: 720
    Spherical Harmonics?: true
    Max angular momentum: 4

  Cached 100.0% of DFT collocation blocks in 1.103 [GiB].

  Minimum eigenvalue in the overlap matrix is 2.1178000566E-04.
  Using Symmetric Orthogonalization.

  SCF Guess: Superposition of Atomic Densities via on-the-fly atomic UHF.

  ==> Iterations <==

                           Total Energy        Delta E     RMS |[F,P]|

   @DF-UKS iter SAD: -1592.36496285355315   -1.59236e+03   0.00000e+00 
   @DF-UKS iter   1: -1592.78434139604337   -4.19379e-01   4.70579e-03 DIIS
   @DF-UKS iter   2: -1592.82474673287629   -4.04053e-02   3.68651e-03 DIIS
   @DF-UKS iter   3: -1592.89359993551602   -6.88532e-02   1.01517e-03 DIIS
   @DF-UKS iter   4: -1592.89970925146781   -6.10932e-03   1.33965e-04 DIIS
   @DF-UKS iter   5: -1592.89992949075304   -2.20239e-04   5.26078e-05 DIIS
   @DF-UKS iter   6: -1592.89996574422457   -3.62535e-05   1.30208e-05 DIIS
   @DF-UKS iter   7: -1592.89997031681560   -4.57259e-06   5.17292e-06 DIIS
   @DF-UKS iter   8: -1592.89997145904817   -1.14223e-06   1.81815e-06 DIIS
   @DF-UKS iter   9: -1592.89997164939132   -1.90343e-07   7.54438e-07 DIIS
   @DF-UKS iter  10: -1592.89997167648244   -2.70911e-08   2.05577e-07 DIIS
   @DF-UKS iter  11: -1592.89997167849333   -2.01089e-09   7.31765e-08 DIIS
   @DF-UKS iter  12: -1592.89997167860884   -1.15506e-10   2.25691e-08 DIIS
   @DF-UKS iter  13: -1592.89997167862384   -1.50067e-11   6.59730e-09 DIIS
  Energy and wave function converged.


  ==> Post-Iterations <==

   @Spin Contamination Metric:   5.752737861E-03
   @S^2 Expected:                7.500000000E-01
   @S^2 Observed:                7.557527379E-01
   @S   Expected:                5.000000000E-01
   @S   Observed:                5.000000000E-01

    Orbital Energies [Eh]
    ---------------------

    Alpha Occupied:                                                       

       1Bu   -88.963963     1Ag   -88.963960     2Bu   -88.876139  
       2Ag   -88.876137     3Ag    -7.967540     3Bu    -7.967466  
       4Ag    -7.883978     4Bu    -7.883978     5Ag    -5.916515  
       5Bu    -5.916274     6Ag    -5.912538     6Bu    -5.912497  
       1Au    -5.912352     1Bg    -5.912336     7Ag    -5.835266  
       7Bu    -5.835266     2Au    -5.827920     2Bg    -5.827920  
       8Ag    -5.825899     8Bu    -5.825899     9Ag    -0.788071  
       9Bu    -0.696824    10Ag    -0.576482    10Bu    -0.510435  
      11Ag    -0.342184    11Bu    -0.316214     3Au    -0.311899  
      12Ag    -0.250584     3Bg    -0.234216    12Bu    -0.177652  
      13Ag    -0.147736     4Au    -0.145662     4Bg    -0.117421  

    Alpha Virtual:                                                        

      13Bu     0.153831    14Bu     0.165534    14Ag     0.174379  
      15Bu     0.187412    15Ag     0.193951    16Bu     0.208636  
       5Au     0.211851    16Ag     0.219796     5Bg     0.226754  
       6Bg     0.232508    17Ag     0.235076    17Bu     0.245431  
      18Ag     0.250126    18Bu     0.253630     6Au     0.254807  
      19Ag     0.285992    19Bu     0.327390    20Ag     0.336776  
      20Bu     0.344877     7Au     0.345034     7Bg     0.361433  
      21Bu     0.399149    21Ag     0.403745    22Bu     0.420159  
       8Bg     0.424647     8Au     0.427921    22Ag     0.431634  
      23Bu     0.438668    23Ag     0.448968     9Au     0.459459  
      24Ag     0.494363     9Bg     0.499891    24Bu     0.504562  
      25Ag     0.517701    10Bg     0.532254    25Bu     0.533862  
      10Au     0.534245    26Bu     0.567361    26Ag     0.590730  
      11Au     0.613302    11Bg     0.680421    27Bu     0.689528  
      27Ag     0.700881    12Au     0.702587    28Ag     0.713624  
      12Bg     0.715821    28Bu     0.717501    13Au     0.724463  
      29Bu     0.734589    29Ag     0.735843    30Ag     0.739907  
      14Au     0.745176    30Bu     0.762125    31Ag     0.767655  
      13Bg     0.791517    31Bu     0.792661    32Ag     0.796641  
      15Au     0.822301    14Bg     0.825657    33Ag     0.825804  
      32Bu     0.836775    34Ag     0.843235    33Bu     0.848128  
      15Bg     0.868750    16Bg     0.893682    35Ag     0.897905  
      16Au     0.914221    34Bu     0.926240    17Bg     0.945497  
      17Au     0.950433    36Ag     0.954105    35Bu     0.961483  
      36Bu     0.983745    37Ag     0.986642    18Bg     0.998710  
      38Ag     1.001736    37Bu     1.015424    18Au     1.074161  
      38Bu     1.096276    39Ag     1.155734    39Bu     1.174703  
      19Au     1.176609    19Bg     1.182652    20Au     1.188810  
      40Ag     1.209967    40Bu     1.218347    20Bg     1.273481  
      41Ag     1.290862    41Bu     1.297474    42Ag     1.323741  
      21Au     1.335424    42Bu     1.340740    21Bg     1.358435  
      22Au     1.386305    43Bu     1.390292    22Bg     1.405019  
      43Ag     1.415916    44Ag     1.462833    44Bu     1.534900  
      45Ag     1.547444    45Bu     1.588768    46Ag     1.681067  
      46Bu     1.710418    23Au     1.985800    47Ag     1.990779  
      23Bg     2.015582    47Bu     2.035163    24Bg     2.039946  
      48Bu     2.045894    48Ag     2.047726    24Au     2.061091  
      49Bu     2.079718    25Au     2.080231    50Bu     2.085978  
      49Ag     2.089865    25Bg     2.108570    26Au     2.156129  
      50Ag     2.170077    27Au     2.176090    51Bu     2.183503  
      26Bg     2.205180    51Ag     2.207377    52Bu     2.220503  
      28Au     2.224691    27Bg     2.227240    52Ag     2.242090  
      28Bg     2.246065    29Au     2.248759    53Ag     2.276795  
      53Bu     2.308056    54Ag     2.338891    30Au     2.344031  
      54Bu     2.365615    55Ag     2.366822    29Bg     2.374373  
      55Bu     2.374860    56Bu     2.401009    31Au     2.421583  
      30Bg     2.429402    31Bg     2.448985    57Bu     2.466723  
      56Ag     2.472074    57Ag     2.501469    32Au     2.505698  
      33Au     2.513842    58Ag     2.514342    32Bg     2.525455  
      58Bu     2.530634    59Bu     2.587585    59Ag     2.608227  
      60Bu     2.617789    60Ag     2.689350    61Ag     2.714639  
      61Bu     2.715341    33Bg     2.727851    34Au     2.767493  
      34Bg     2.790942    62Ag     2.829358    62Bu     2.892942  
      63Ag     2.944664    63Bu     3.835052    64Ag     3.860716  
      64Bu     3.896076    65Ag     4.992327    65Bu     5.439822  
      66Ag     5.818165    66Bu     5.993627  

    Beta Occupied:                                                        

       1Bu   -88.961883     1Ag   -88.961880     2Bu   -88.875155  
       2Ag   -88.875154     3Ag    -7.965389     3Bu    -7.965299  
       4Ag    -7.882923     4Bu    -7.882922     5Ag    -5.915141  
       5Bu    -5.914895     6Ag    -5.911177     6Bu    -5.911140  
       1Au    -5.905119     1Bg    -5.905099     7Ag    -5.834724  
       7Bu    -5.834724     8Ag    -5.825207     8Bu    -5.825207  
       2Au    -5.824290     2Bg    -5.824290     9Ag    -0.778824  
       9Bu    -0.688265    10Ag    -0.568416    10Bu    -0.492469  
      11Ag    -0.335826    11Bu    -0.311185     3Au    -0.284427  
      12Ag    -0.244697     3Bg    -0.207010    12Bu    -0.174340  
      13Ag    -0.145038     4Au    -0.105989  

    Beta Virtual:                                                         

       4Bg     0.078901    13Bu     0.155259    14Bu     0.168275  
      14Ag     0.175620    15Bu     0.191101    15Ag     0.195169  
      16Bu     0.211951     5Au     0.213042    16Ag     0.220179  
       5Bg     0.230277     6Bg     0.235339    17Ag     0.238313  
      17Bu     0.246169    18Ag     0.250171    18Bu     0.254706  
       6Au     0.256988    19Ag     0.287064    19Bu     0.327213  
      20Ag     0.337298    20Bu     0.345531     7Au     0.349873  
       7Bg     0.366692    21Bu     0.399974    21Ag     0.405656  
      22Bu     0.422449     8Bg     0.427821    22Ag     0.433067  
       8Au     0.435267    23Bu     0.441492    23Ag     0.451537  
       9Au     0.463347    24Ag     0.494884     9Bg     0.503681  
      24Bu     0.505526    25Ag     0.518819    10Bg     0.533786  
      25Bu     0.535031    10Au     0.538277    26Bu     0.568101  
      26Ag     0.592297    11Au     0.618067    11Bg     0.683046  
      27Bu     0.689896    27Ag     0.701567    12Au     0.706299  
      28Ag     0.714734    28Bu     0.720430    12Bg     0.722290  
      13Au     0.730202    29Bu     0.735844    29Ag     0.737752  
      30Ag     0.741246    14Au     0.751478    30Bu     0.763648  
      31Ag     0.769247    13Bg     0.794535    31Bu     0.794873  
      32Ag     0.800598    33Ag     0.826974    15Au     0.827374  
      14Bg     0.829011    32Bu     0.842923    34Ag     0.850669  
      33Bu     0.852984    15Bg     0.876350    35Ag     0.900016  
      16Bg     0.902542    16Au     0.922651    34Bu     0.928383  
      17Bg     0.950858    17Au     0.951790    36Ag     0.956171  
      35Bu     0.966171    36Bu     0.985863    37Ag     0.990048  
      18Bg     1.000007    38Ag     1.003277    37Bu     1.016867  
      18Au     1.076043    38Bu     1.098377    39Ag     1.157563  
      39Bu     1.176318    19Au     1.179650    19Bg     1.185781  
      20Au     1.191910    40Ag     1.211828    40Bu     1.221163  
      20Bg     1.275809    41Ag     1.291676    41Bu     1.298281  
      42Ag     1.326613    21Au     1.337893    42Bu     1.341756  
      21Bg     1.364105    22Au     1.390657    43Bu     1.392851  
      22Bg     1.410038    43Ag     1.419148    44Ag     1.463699  
      44Bu     1.536059    45Ag     1.551576    45Bu     1.594813  
      46Ag     1.687408    46Bu     1.718994    23Au     1.993505  
      47Ag     1.996850    23Bg     2.023962    47Bu     2.041114  
      24Bg     2.045340    48Bu     2.049783    48Ag     2.053590  
      24Au     2.067152    49Bu     2.083735    25Au     2.086866  
      50Bu     2.088424    49Ag     2.091388    25Bg     2.118306  
      26Au     2.167061    50Ag     2.176700    27Au     2.186533  
      51Bu     2.186935    51Ag     2.211968    26Bg     2.215496  
      52Bu     2.225153    27Bg     2.234675    28Au     2.234875  
      52Ag     2.246753    28Bg     2.254336    29Au     2.265002  
      53Ag     2.279150    53Bu     2.311471    54Ag     2.340762  
      30Au     2.350369    54Bu     2.367548    55Ag     2.372362  
      55Bu     2.379096    29Bg     2.381456    56Bu     2.406364  
      31Au     2.426334    30Bg     2.441783    31Bg     2.457525  
      57Bu     2.471368    56Ag     2.477061    57Ag     2.508906  
      32Au     2.513649    58Ag     2.516590    33Au     2.523207  
      32Bg     2.532771    58Bu     2.538041    59Bu     2.593640  
      59Ag     2.613182    60Bu     2.621168    60Ag     2.691344  
      61Bu     2.718002    61Ag     2.718399    33Bg     2.740252  
      34Au     2.776361    34Bg     2.799702    62Ag     2.831087  
      62Bu     2.894514    63Ag     2.946840    63Bu     3.837991  
      64Ag     3.863075    64Bu     3.898631    65Ag     4.996780  
      65Bu     5.442899    66Ag     5.822088    66Bu     5.998490  

    Final Occupation by Irrep:
             Ag    Bg    Au    Bu 
    DOCC [    13,    3,    4,   12 ]
    SOCC [     0,    1,    0,    0 ]

  @DF-UKS Final Energy: -1592.89997167862384

   => Energetics <=

    Nuclear Repulsion Energy =            310.8007252881927798
    One-Electron Energy =               -2831.1162290170441338
    Two-Electron Energy =                1002.5384380050240907
    DFT Exchange-Correlation Energy =     -75.1223930364307080
    Empirical Dispersion Energy =          -0.0005129183655409
    VV10 Nonlocal Energy =                  0.0000000000000000
    Total Energy =                      -1592.8999716786238423

  UHF NO Occupations:
  HONO-2 :    3 Bg 1.9995005
  HONO-1 :    4 Au 1.9986749
  HONO-0 :    4 Bg 1.0000000
  LUNO+0 :    5 Au 0.0013251
  LUNO+1 :    5 Bg 0.0004995
  LUNO+2 :    6 Au 0.0004245
  LUNO+3 :   13 Bu 0.0002606


Computation Completed


Properties will be evaluated at   0.000000,   0.000000,   0.000000 [a0]

Properties computed using the SCF density matrix

  Nuclear Dipole Moment: [e a0]
     X:     0.0000      Y:     0.0000      Z:     0.0000

  Electronic Dipole Moment: [e a0]
     X:     0.0000      Y:     0.0000      Z:     0.0000

  Dipole Moment: [e a0]
     X:     0.0000      Y:     0.0000      Z:     0.0000     Total:     0.0000

  Dipole Moment: [D]
     X:     0.0000      Y:     0.0000      Z:     0.0000     Total:     0.0000


*** tstop() called on b1-21.compute.lan at Thu Feb 11 14:01:42 2021
Module time:
	user time   =     142.02 seconds =       2.37 minutes
	system time =       0.44 seconds =       0.01 minutes
	total time  =        143 seconds =       2.38 minutes
Total time:
	user time   =     142.02 seconds =       2.37 minutes
	system time =       0.44 seconds =       0.01 minutes
	total time  =        143 seconds =       2.38 minutes

*** tstart() called on b1-21.compute.lan
*** at Thu Feb 11 14:01:42 2021


         ------------------------------------------------------------
                                   SCF GRAD                          
                          Rob Parrish, Justin Turney,                
                       Andy Simmonett, and Alex Sokolov              
         ------------------------------------------------------------

  ==> Geometry <==

    Molecular point group: c2h
    Full point group: C2h

    Geometry (in Angstrom), charge = -1, multiplicity = 2:

       Center              X                  Y                   Z               Mass       
    ------------   -----------------  -----------------  -----------------  -----------------
         S            0.000000000000     1.025500000000     0.000000000000    31.972071174400
         S            0.000000000000    -1.025500000000     0.000000000000    31.972071174400
         S           -1.954116604900     1.552761125493     0.000000000000    31.972071174400
         S            1.954116604900    -1.552761125493     0.000000000000    31.972071174400

  Nuclear repulsion =  310.800725288192723

  ==> Basis Set <==

  Basis Set: AUG-CC-PVTZ
    Blend: AUG-CC-PVTZ
    Number of shells: 64
    Number of basis function: 200
    Number of Cartesian functions: 236
    Spherical Harmonics?: true
    Max angular momentum: 3

  ==> DFJKGrad: Density-Fitted SCF Gradients <==

    Gradient:                    1
    J tasked:                  Yes
    K tasked:                  Yes
    wK tasked:                 Yes
    Omega:               2.000E-01
    OpenMP threads:              1
    Integrals threads:           1
    Memory [MiB]:            11444
    Schwarz Cutoff:          0E+00
    Fitting Condition:       1E-10

   => Auxiliary Basis Set <=

  Basis Set: (AUG-CC-PVTZ AUX)
    Blend: AUG-CC-PVTZ-JKFIT
    Number of shells: 168
    Number of basis function: 584
    Number of Cartesian functions: 720
    Spherical Harmonics?: true
    Max angular momentum: 4

  ==> DFT Potential <==

   => Composite Functional: WB97X-D <= 

    wB97X-D Hyb-GGA Exchange-Correlation Functional

    J.-D. Chai and M. Head-Gordon, Phys. Chem. Chem. Phys. 10, 6615 (2008)

    Deriv               =              1
    GGA                 =           TRUE
    Meta                =          FALSE

    Exchange Hybrid     =           TRUE
    MP2 Hybrid          =          FALSE

   => Exchange-Correlation Functionals <=

    1.0000   wB97D range-separated functional

   => Exact (HF) Exchange <=

    0.7780            HF,LR [omega = 0.2000]
    0.2220               HF 

   => Molecular Quadrature <=

    Radial Scheme          =       TREUTLER
    Pruning Scheme         =           NONE
    Nuclear Scheme         =       TREUTLER

    BS radius alpha        =              1
    Pruning alpha          =              1
    Radial Points          =             99
    Spherical Points       =            590
    Total Points           =         225778
    Total Blocks           =           1818
    Max Points             =            256
    Max Functions          =            200
    Weights Tolerance      =       1.00E-15


  -Total Gradient:
     Atom            X                  Y                   Z
    ------   -----------------  -----------------  -----------------
       1        0.012969958629    -0.004469167054     0.000000000000
       2       -0.012969958629     0.004469167054     0.000000000000
       3       -0.008462229768    -0.000074293471    -0.000000000000
       4        0.008462229768     0.000074293471     0.000000000000


*** tstop() called on b1-21.compute.lan at Thu Feb 11 14:02:14 2021
Module time:
	user time   =      31.40 seconds =       0.52 minutes
	system time =       0.11 seconds =       0.00 minutes
	total time  =         32 seconds =       0.53 minutes
Total time:
	user time   =     173.42 seconds =       2.89 minutes
	system time =       0.55 seconds =       0.01 minutes
	total time  =        175 seconds =       2.92 minutes

			-----------------------------------------
			 OPTKING 2.0: for geometry optimizations 
			  - R.A. King,  Bethel University        
			-----------------------------------------

	Internal coordinates to be generated automatically.
	Detected frag 1 with atoms:  1 2 3 4
	---Fragment 1 Bond Connectivity---
	 1 : 2 3
	 2 : 1 4
	 3 : 1
	 4 : 2

	---Fragment 1 Geometry and Gradient---
	 S           0.0000000000        1.9379141417        0.0000000000
	 S           0.0000000000       -1.9379141417        0.0000000000
	 S          -3.6927452005        2.9342932654        0.0000000000
	 S           3.6927452005       -2.9342932654        0.0000000000
	             0.0129699586       -0.0044691671        0.0000000000
	            -0.0129699586        0.0044691671        0.0000000000
	            -0.0084622298       -0.0000742935       -0.0000000000
	             0.0084622298        0.0000742935        0.0000000000

	Previous optimization step data not found.  Starting new optimization.

	---Fragment 1 Intrafragment Coordinates---
	 - Coordinate -           - BOHR/RAD -       - ANG/DEG -
	 R(1,2)           =         3.875828	       2.051000
	 R(1,3)           =         3.824806	       2.024000
	 R(2,4)           =         3.824806	       2.024000
	 B(1,2,4)         =         1.834341	     105.100000
	 B(2,1,3)         =         1.834341	     105.100000
	 D(3,1,2,4)       =         3.141593	     180.000000

	Current energy   :     -1592.8999716786

	Generating empirical Hessian (Schlegel '84) for each fragment.
	Taking RFO optimization step.
	Going to follow RFO solution 1.
	Using RFO vector 1.
	Norm of target step-size    0.06280
	Projected energy change by RFO approximation:        -0.0018527541

	Back-transformation to cartesian coordinates...
	Successfully converged to displaced geometry.

	--- Internal Coordinate Step in ANG or DEG, aJ/ANG or AJ/DEG ---
	 ---------------------------------------------------------------------------
	   Coordinate                Previous        Force       Change         New 
	   ----------                --------       ------       ------       ------
	    1 R(1,2)          =      2.051000     0.037467     0.008170     2.059170
	    2 R(1,3)          =      2.024000    -0.067169    -0.013445     2.010555
	    3 R(2,4)          =      2.024000    -0.067169    -0.013445     2.010555
	    4 B(1,2,4)        =    105.100000     0.000664     1.990895   107.090895
	    5 B(2,1,3)        =    105.100000     0.000664     1.990895   107.090895
	    6 D(3,1,2,4)      =    180.000000     0.000000     0.000000   180.000000
	 ---------------------------------------------------------------------------
	Successfully symmetrized geometry.

  ==> Convergence Check <==

  Measures of convergence in internal coordinates in au.
  Criteria marked as inactive (o), active & met (*), and active & unmet ( ).
  --------------------------------------------------------------------------------------------- ~
   Step     Total Energy     Delta E     MAX Force     RMS Force      MAX Disp      RMS Disp    ~
  --------------------------------------------------------------------------------------------- ~
    Convergence Criteria             o    2.00e-06 *    1.00e-06 *    6.00e-06 *    4.00e-06 *  ~
  --------------------------------------------------------------------------------------------- ~
      1   -1592.89997168   -1.59e+03 o    8.72e-03      7.14e-03      3.47e-02      2.56e-02    ~
  ---------------------------------------------------------------------------------------------

	Writing optimization data to binary file.
	Structure for next step:
	Cartesian Geometry (in Angstrom)
	    S    -0.0256385361   1.0292655300   0.0000000000
	    S     0.0256385361  -1.0292655300   0.0000000000
	    S    -1.9615251324   1.5721057036   0.0000000000
	    S     1.9615251324  -1.5721057036   0.0000000000
			--------------------------
			 OPTKING Finished Execution 
			--------------------------

    Structure for next step:
    Molecular point group: c2h
    Full point group: C2h

    Geometry (in Angstrom), charge = -1, multiplicity = 2:

    S       
    S             1          r1
    S             1          r2      2          a1
    S             2          r3      1          a2      3          d1

    a1        =  107.0908952811
    a2        =  107.0908952811
    d1        = -180.0000000000
    r1        =    2.0591696133
    r2        =    2.0105552465
    r3        =    2.0105552465

gradient() will perform analytic gradient computation.

*** tstart() called on b1-21.compute.lan
*** at Thu Feb 11 14:02:14 2021

   => Loading Basis Set <=

    Name: AUG-CC-PVTZ
    Role: ORBITAL
    Keyword: BASIS
    atoms 1-4 entry S          line   906 file /apps/gb/PSI4/1.4.0/share/psi4/basis/aug-cc-pvtz.gbs 

   => WB97X-D: Empirical Dispersion <=

    Chai and Head-Gordon Dispersion Correction
    Chai, J.-D.; Head-Gordon, M. (2010), J. Chem. Phys., 132: 6615-6620

        s6 =       1.000000


         ---------------------------------------------------------
                                   SCF
               by Justin Turney, Rob Parrish, Andy Simmonett
                          and Daniel G. A. Smith
                              UKS Reference
                        1 Threads,  15258 MiB Core
         ---------------------------------------------------------

  ==> Geometry <==

    Molecular point group: c2h
    Full point group: C2h

    Geometry (in Angstrom), charge = -1, multiplicity = 2:

       Center              X                  Y                   Z               Mass       
    ------------   -----------------  -----------------  -----------------  -----------------
         S            0.000000000000     1.029584806661     0.000000000000    31.972071174400
         S            0.000000000000    -1.029584806661     0.000000000000    31.972071174400
         S           -1.921768579762     1.620463749613     0.000000000000    31.972071174400
         S            1.921768579762    -1.620463749613     0.000000000000    31.972071174400

  Running in c2h symmetry.

  Rotational constants: A =      0.45816  B =      0.03875  C =      0.03573 [cm^-1]
  Rotational constants: A =  13735.26500  B =   1161.63421  C =   1071.05200 [MHz]
  Nuclear repulsion =  310.258560103602520

  Charge       = -1
  Multiplicity = 2
  Electrons    = 65
  Nalpha       = 33
  Nbeta        = 32

  ==> Algorithm <==

  SCF Algorithm Type is DF.
  DIIS enabled.
  MOM disabled.
  Fractional occupation disabled.
  Guess Type is READ.
  Energy threshold   = 1.00e-08
  Density threshold  = 1.00e-08
  Integral threshold = 0.00e+00

  ==> Primary Basis <==

  Basis Set: AUG-CC-PVTZ
    Blend: AUG-CC-PVTZ
    Number of shells: 64
    Number of basis function: 200
    Number of Cartesian functions: 236
    Spherical Harmonics?: true
    Max angular momentum: 3

  ==> DFT Potential <==

   => Composite Functional: WB97X-D <= 

    wB97X-D Hyb-GGA Exchange-Correlation Functional

    J.-D. Chai and M. Head-Gordon, Phys. Chem. Chem. Phys. 10, 6615 (2008)

    Deriv               =              1
    GGA                 =           TRUE
    Meta                =          FALSE

    Exchange Hybrid     =           TRUE
    MP2 Hybrid          =          FALSE

   => Exchange-Correlation Functionals <=

    1.0000   wB97D range-separated functional

   => Exact (HF) Exchange <=

    0.7780            HF,LR [omega = 0.2000]
    0.2220               HF 

   => Molecular Quadrature <=

    Radial Scheme          =       TREUTLER
    Pruning Scheme         =           NONE
    Nuclear Scheme         =       TREUTLER

    BS radius alpha        =              1
    Pruning alpha          =              1
    Radial Points          =             99
    Spherical Points       =            590
    Total Points           =         225754
    Total Blocks           =           1819
    Max Points             =            256
    Max Functions          =            200
    Weights Tolerance      =       1.00E-15

   => Loading Basis Set <=

    Name: (AUG-CC-PVTZ AUX)
    Role: JKFIT
    Keyword: DF_BASIS_SCF
    atoms 1-4 entry S          line   730 file /apps/gb/PSI4/1.4.0/share/psi4/basis/aug-cc-pvtz-jkfit.gbs 

   => Loading Basis Set <=

    Name: AUG-CC-PVTZ
    Role: ORBITAL
    Keyword: BASIS
    atoms 1-4 entry S          line   906 file /apps/gb/PSI4/1.4.0/share/psi4/basis/aug-cc-pvtz.gbs 

  Reading orbitals from file 180, no projection.

  ==> Pre-Iterations <==

   -------------------------------------------------------
    Irrep   Nso     Nmo     Nalpha   Nbeta   Ndocc  Nsocc
   -------------------------------------------------------
     Ag        66      66       0       0       0       0
     Bg        34      34       0       0       0       0
     Au        34      34       0       0       0       0
     Bu        66      66       0       0       0       0
   -------------------------------------------------------
    Total     200     200      33      32      32       1
   -------------------------------------------------------

  ==> Integral Setup <==

  ==> DiskDFJK: Density-Fitted J/K Matrices <==

    J tasked:                  Yes
    K tasked:                  Yes
    wK tasked:                 Yes
    Omega:               2.000E-01
    OpenMP threads:              1
    Integrals threads:           1
    Memory [MiB]:            10319
    Algorithm:                Core
    Integral Cache:           NONE
    Schwarz Cutoff:          1E-12
    Fitting Condition:       1E-10

   => Auxiliary Basis Set <=

  Basis Set: (AUG-CC-PVTZ AUX)
    Blend: AUG-CC-PVTZ-JKFIT
    Number of shells: 168
    Number of basis function: 584
    Number of Cartesian functions: 720
    Spherical Harmonics?: true
    Max angular momentum: 4

  Cached 100.0% of DFT collocation blocks in 1.098 [GiB].

  Minimum eigenvalue in the overlap matrix is 2.0700916759E-04.
  Using Symmetric Orthogonalization.

  SCF Guess: Orbitals guess was supplied from a previous computation.

  ==> Iterations <==

                           Total Energy        Delta E     RMS |[F,P]|

   @DF-UKS iter   0: -1592.90512956433486   -1.59291e+03   1.15643e-03 
   @DF-UKS iter   1: -1592.90051268890011    4.61688e-03   9.21155e-05 DIIS
   @DF-UKS iter   2: -1592.90063702286398   -1.24334e-04   5.36823e-05 DIIS
   @DF-UKS iter   3: -1592.90066237834344   -2.53555e-05   2.75782e-05 DIIS
   @DF-UKS iter   4: -1592.90067230770910   -9.92937e-06   1.17790e-05 DIIS
   @DF-UKS iter   5: -1592.90067474877719   -2.44107e-06   3.37108e-06 DIIS
   @DF-UKS iter   6: -1592.90067497377663   -2.24999e-07   9.75106e-07 DIIS
   @DF-UKS iter   7: -1592.90067500240821   -2.86316e-08   2.43303e-07 DIIS
   @DF-UKS iter   8: -1592.90067500389318   -1.48498e-09   8.27637e-08 DIIS
   @DF-UKS iter   9: -1592.90067500418400   -2.90811e-10   3.93979e-08 DIIS
   @DF-UKS iter  10: -1592.90067500425994   -7.59428e-11   1.48479e-08 DIIS
   @DF-UKS iter  11: -1592.90067500426881   -8.86757e-12   4.54775e-09 DIIS
  Energy and wave function converged.


  ==> Post-Iterations <==

   @Spin Contamination Metric:   5.850213433E-03
   @S^2 Expected:                7.500000000E-01
   @S^2 Observed:                7.558502134E-01
   @S   Expected:                5.000000000E-01
   @S   Observed:                5.000000000E-01

    Orbital Energies [Eh]
    ---------------------

    Alpha Occupied:                                                       

       1Bu   -88.962408     1Ag   -88.962405     2Bu   -88.876962  
       2Ag   -88.876960     3Ag    -7.966099     3Bu    -7.966029  
       4Ag    -7.884981     4Bu    -7.884981     5Ag    -5.915083  
       5Bu    -5.914852     6Ag    -5.911029     6Bu    -5.910992  
       1Au    -5.910944     1Bg    -5.910928     7Ag    -5.836195  
       7Bu    -5.836194     2Bg    -5.828912     2Au    -5.828912  
       8Ag    -5.826959     8Bu    -5.826959     9Ag    -0.787131  
       9Bu    -0.700894    10Ag    -0.578235    10Bu    -0.507938  
      11Ag    -0.342429    11Bu    -0.315683     3Au    -0.311139  
      12Ag    -0.250802     3Bg    -0.236529    12Bu    -0.180345  
      13Ag    -0.147054     4Au    -0.146261     4Bg    -0.115562  

    Alpha Virtual:                                                        

      13Bu     0.153307    14Bu     0.166593    14Ag     0.174453  
      15Bu     0.185454    15Ag     0.194226    16Bu     0.210398  
       5Au     0.211605    16Ag     0.219927     5Bg     0.226308  
       6Bg     0.232813    17Ag     0.238977    17Bu     0.245423  
      18Ag     0.250483    18Bu     0.253247     6Au     0.254665  
      19Ag     0.286260    19Bu     0.327390    20Ag     0.336569  
      20Bu     0.344849     7Au     0.344866     7Bg     0.361165  
      21Bu     0.396697    21Ag     0.404311    22Bu     0.423948  
       8Bg     0.423982    22Ag     0.429830     8Au     0.430889  
      23Bu     0.438295    23Ag     0.449961     9Au     0.456546  
      24Ag     0.492580     9Bg     0.499862    24Bu     0.503241  
      25Ag     0.518524    10Au     0.533066    10Bg     0.533172  
      25Bu     0.536000    26Bu     0.567771    26Ag     0.591418  
      11Au     0.613372    11Bg     0.679140    27Bu     0.688219  
      27Ag     0.699520    12Au     0.703070    28Ag     0.713753  
      12Bg     0.716153    28Bu     0.719072    13Au     0.725977  
      29Bu     0.734091    29Ag     0.735751    30Ag     0.738979  
      14Au     0.744820    30Bu     0.761861    31Ag     0.766576  
      31Bu     0.789376    13Bg     0.791088    32Ag     0.796103  
      15Au     0.820702    14Bg     0.822956    33Ag     0.824107  
      32Bu     0.835717    34Ag     0.842667    33Bu     0.850816  
      15Bg     0.867370    16Bg     0.897266    35Ag     0.899623  
      16Au     0.916469    34Bu     0.925964    17Bg     0.945968  
      17Au     0.949440    36Ag     0.956294    35Bu     0.962262  
      36Bu     0.982055    37Ag     0.988214    18Bg     0.998797  
      38Ag     1.002010    37Bu     1.014140    18Au     1.069622  
      38Bu     1.098233    39Ag     1.155965    19Au     1.172944  
      39Bu     1.179256    19Bg     1.187894    20Au     1.193026  
      40Ag     1.210165    40Bu     1.215196    20Bg     1.265374  
      41Bu     1.289856    41Ag     1.296752    42Ag     1.324448  
      21Au     1.340697    42Bu     1.347577    21Bg     1.360350  
      22Au     1.387433    43Bu     1.391266    22Bg     1.407124  
      43Ag     1.414181    44Ag     1.471218    44Bu     1.539921  
      45Ag     1.544526    45Bu     1.587902    46Ag     1.685038  
      46Bu     1.708762    23Au     1.986629    47Ag     1.988595  
      23Bg     2.014729    47Bu     2.031462    24Bg     2.038363  
      48Bu     2.045064    48Ag     2.045840    24Au     2.063691  
      25Au     2.075325    49Bu     2.081182    49Ag     2.087546  
      50Bu     2.092846    25Bg     2.112127    26Au     2.157003  
      50Ag     2.168731    51Bu     2.175907    27Au     2.178968  
      26Bg     2.205821    51Ag     2.208631    28Au     2.217634  
      52Bu     2.221165    27Bg     2.222632    52Ag     2.237819  
      28Bg     2.247615    29Au     2.248459    53Ag     2.276382  
      53Bu     2.307443    54Ag     2.331324    30Au     2.344098  
      54Bu     2.362453    55Ag     2.365033    55Bu     2.370344  
      29Bg     2.370850    56Bu     2.399184    31Au     2.416167  
      30Bg     2.428312    31Bg     2.453918    57Bu     2.465671  
      56Ag     2.472305    57Ag     2.505678    32Au     2.508301  
      58Ag     2.511717    33Au     2.514183    32Bg     2.531126  
      58Bu     2.541543    59Bu     2.588200    59Ag     2.605736  
      60Bu     2.626369    60Ag     2.687738    33Bg     2.723857  
      61Ag     2.731657    61Bu     2.735505    34Au     2.779949  
      34Bg     2.796975    62Ag     2.852203    62Bu     2.884690  
      63Ag     2.914163    63Bu     3.833530    64Ag     3.869779  
      64Bu     3.911712    65Ag     5.046334    65Bu     5.422410  
      66Ag     5.825549    66Bu     5.979361  

    Beta Occupied:                                                        

       1Bu   -88.960323     1Ag   -88.960321     2Bu   -88.875970  
       2Ag   -88.875969     3Ag    -7.963942     3Bu    -7.963855  
       4Ag    -7.883918     4Bu    -7.883916     5Ag    -5.913704  
       5Bu    -5.913469     6Ag    -5.909665     6Bu    -5.909631  
       1Au    -5.903698     1Bg    -5.903679     7Ag    -5.835644  
       7Bu    -5.835643     8Ag    -5.826265     8Bu    -5.826265  
       2Au    -5.825255     2Bg    -5.825255     9Ag    -0.777889  
       9Bu    -0.692387    10Ag    -0.570156    10Bu    -0.489964  
      11Ag    -0.336102    11Bu    -0.310634     3Au    -0.283942  
      12Ag    -0.244956     3Bg    -0.209381    12Bu    -0.176973  
      13Ag    -0.144260     4Au    -0.106105  

    Beta Virtual:                                                         

       4Bg     0.080605    13Bu     0.154935    14Bu     0.169347  
      14Ag     0.175717    15Bu     0.189053    15Ag     0.195422  
       5Au     0.212832    16Bu     0.213563    16Ag     0.220258  
       5Bg     0.229858     6Bg     0.235626    17Ag     0.242094  
      17Bu     0.246098    18Ag     0.250851    18Bu     0.254490  
       6Au     0.256911    19Ag     0.287348    19Bu     0.327229  
      20Ag     0.337147    20Bu     0.345472     7Au     0.349743  
       7Bg     0.366435    21Bu     0.397590    21Ag     0.406185  
      22Bu     0.426256     8Bg     0.427201    22Ag     0.431265  
       8Au     0.438182    23Bu     0.441146    23Ag     0.452622  
       9Au     0.460544    24Ag     0.493165     9Bg     0.503766  
      24Bu     0.504159    25Ag     0.519618    10Bg     0.534643  
      25Bu     0.537144    10Au     0.537204    26Bu     0.568600  
      26Ag     0.593019    11Au     0.618181    11Bg     0.681757  
      27Bu     0.688724    27Ag     0.700267    12Au     0.706550  
      28Ag     0.714873    28Bu     0.722048    12Bg     0.722850  
      13Au     0.731554    29Bu     0.735457    29Ag     0.737832  
      30Ag     0.739909    14Au     0.751514    30Bu     0.763433  
      31Ag     0.768163    31Bu     0.791264    13Bg     0.794276  
      32Ag     0.800395    33Ag     0.825105    15Au     0.825820  
      14Bg     0.826379    32Bu     0.841269    34Ag     0.850170  
      33Bu     0.856767    15Bg     0.874887    35Ag     0.901933  
      16Bg     0.906122    16Au     0.925002    34Bu     0.927804  
      17Au     0.950836    17Bg     0.951200    36Ag     0.958358  
      35Bu     0.966011    36Bu     0.985029    37Ag     0.991481  
      18Bg     1.000207    38Ag     1.003579    37Bu     1.015653  
      18Au     1.071500    38Bu     1.100469    39Ag     1.157957  
      19Au     1.176141    39Bu     1.180901    19Bg     1.191026  
      20Au     1.196019    40Ag     1.211905    40Bu     1.217982  
      20Bg     1.267751    41Bu     1.290716    41Ag     1.297665  
      42Ag     1.327368    21Au     1.343405    42Bu     1.348711  
      21Bg     1.365937    22Au     1.391636    43Bu     1.393779  
      22Bg     1.412307    43Ag     1.417346    44Ag     1.471953  
      44Bu     1.541154    45Ag     1.548834    45Bu     1.593821  
      46Ag     1.691440    46Bu     1.717289    23Au     1.994409  
      47Ag     1.994779    23Bg     2.023159    47Bu     2.037358  
      24Bg     2.043767    48Bu     2.048947    48Ag     2.051787  
      24Au     2.069836    25Au     2.081918    49Bu     2.086005  
      49Ag     2.089019    50Bu     2.094811    25Bg     2.121801  
      26Au     2.168377    50Ag     2.174807    51Bu     2.179167  
      27Au     2.189138    51Ag     2.213829    26Bg     2.216283  
      52Bu     2.225940    28Au     2.227486    27Bg     2.229846  
      52Ag     2.242355    28Bg     2.256130    29Au     2.264719  
      53Ag     2.278597    53Bu     2.310863    54Ag     2.333184  
      30Au     2.350535    54Bu     2.364287    55Ag     2.370841  
      55Bu     2.374413    29Bg     2.377922    56Bu     2.405042  
      31Au     2.420955    30Bg     2.441313    31Bg     2.461868  
      57Bu     2.470707    56Ag     2.477602    57Ag     2.509858  
      32Au     2.516012    58Ag     2.516817    33Au     2.524005  
      32Bg     2.538770    58Bu     2.548693    59Bu     2.594116  
      59Ag     2.610739    60Bu     2.629643    60Ag     2.689749  
      61Ag     2.735506    33Bg     2.736126    61Bu     2.738185  
      34Au     2.788864    34Bg     2.805769    62Ag     2.853964  
      62Bu     2.886247    63Ag     2.916386    63Bu     3.836563  
      64Ag     3.872156    64Bu     3.914231    65Ag     5.050780  
      65Bu     5.425530    66Ag     5.829521    66Bu     5.984190  

    Final Occupation by Irrep:
             Ag    Bg    Au    Bu 
    DOCC [    13,    3,    4,   12 ]
    SOCC [     0,    1,    0,    0 ]

  @DF-UKS Final Energy: -1592.90067500426881

   => Energetics <=

    Nuclear Repulsion Energy =            310.2585601036025196
    One-Electron Energy =               -2830.0297306551665315
    Two-Electron Energy =                1001.9978588621054314
    DFT Exchange-Correlation Energy =     -75.1268356964620381
    Empirical Dispersion Energy =          -0.0005276183482247
    VV10 Nonlocal Energy =                  0.0000000000000000
    Total Energy =                      -1592.9006750042688054

  UHF NO Occupations:
  HONO-2 :    3 Bg 1.9994987
  HONO-1 :    4 Au 1.9986277
  HONO-0 :    4 Bg 1.0000000
  LUNO+0 :    5 Au 0.0013723
  LUNO+1 :    5 Bg 0.0005013
  LUNO+2 :    6 Au 0.0004186
  LUNO+3 :   13 Bu 0.0002649


Computation Completed


Properties will be evaluated at   0.000000,   0.000000,   0.000000 [a0]

Properties computed using the SCF density matrix

  Nuclear Dipole Moment: [e a0]
     X:     0.0000      Y:     0.0000      Z:     0.0000

  Electronic Dipole Moment: [e a0]
     X:     0.0000      Y:     0.0000      Z:     0.0000

  Dipole Moment: [e a0]
     X:     0.0000      Y:     0.0000      Z:     0.0000     Total:     0.0000

  Dipole Moment: [D]
     X:     0.0000      Y:     0.0000      Z:     0.0000     Total:     0.0000


*** tstop() called on b1-21.compute.lan at Thu Feb 11 14:04:16 2021
Module time:
	user time   =     122.33 seconds =       2.04 minutes
	system time =       0.13 seconds =       0.00 minutes
	total time  =        122 seconds =       2.03 minutes
Total time:
	user time   =     295.76 seconds =       4.93 minutes
	system time =       0.68 seconds =       0.01 minutes
	total time  =        297 seconds =       4.95 minutes

*** tstart() called on b1-21.compute.lan
*** at Thu Feb 11 14:04:16 2021


         ------------------------------------------------------------
                                   SCF GRAD                          
                          Rob Parrish, Justin Turney,                
                       Andy Simmonett, and Alex Sokolov              
         ------------------------------------------------------------

  ==> Geometry <==

    Molecular point group: c2h
    Full point group: C2h

    Geometry (in Angstrom), charge = -1, multiplicity = 2:

       Center              X                  Y                   Z               Mass       
    ------------   -----------------  -----------------  -----------------  -----------------
         S            0.000000000000     1.029584806661     0.000000000000    31.972071174400
         S            0.000000000000    -1.029584806661     0.000000000000    31.972071174400
         S           -1.921768579762     1.620463749613     0.000000000000    31.972071174400
         S            1.921768579762    -1.620463749613     0.000000000000    31.972071174400

  Nuclear repulsion =  310.258560103602520

  ==> Basis Set <==

  Basis Set: AUG-CC-PVTZ
    Blend: AUG-CC-PVTZ
    Number of shells: 64
    Number of basis function: 200
    Number of Cartesian functions: 236
    Spherical Harmonics?: true
    Max angular momentum: 3

  ==> DFJKGrad: Density-Fitted SCF Gradients <==

    Gradient:                    1
    J tasked:                  Yes
    K tasked:                  Yes
    wK tasked:                 Yes
    Omega:               2.000E-01
    OpenMP threads:              1
    Integrals threads:           1
    Memory [MiB]:            11444
    Schwarz Cutoff:          0E+00
    Fitting Condition:       1E-10

   => Auxiliary Basis Set <=

  Basis Set: (AUG-CC-PVTZ AUX)
    Blend: AUG-CC-PVTZ-JKFIT
    Number of shells: 168
    Number of basis function: 584
    Number of Cartesian functions: 720
    Spherical Harmonics?: true
    Max angular momentum: 4

  ==> DFT Potential <==

   => Composite Functional: WB97X-D <= 

    wB97X-D Hyb-GGA Exchange-Correlation Functional

    J.-D. Chai and M. Head-Gordon, Phys. Chem. Chem. Phys. 10, 6615 (2008)

    Deriv               =              1
    GGA                 =           TRUE
    Meta                =          FALSE

    Exchange Hybrid     =           TRUE
    MP2 Hybrid          =          FALSE

   => Exchange-Correlation Functionals <=

    1.0000   wB97D range-separated functional

   => Exact (HF) Exchange <=

    0.7780            HF,LR [omega = 0.2000]
    0.2220               HF 

   => Molecular Quadrature <=

    Radial Scheme          =       TREUTLER
    Pruning Scheme         =           NONE
    Nuclear Scheme         =       TREUTLER

    BS radius alpha        =              1
    Pruning alpha          =              1
    Radial Points          =             99
    Spherical Points       =            590
    Total Points           =         225754
    Total Blocks           =           1819
    Max Points             =            256
    Max Functions          =            200
    Weights Tolerance      =       1.00E-15


  -Total Gradient:
     Atom            X                  Y                   Z
    ------   -----------------  -----------------  -----------------
       1        0.004819698486    -0.004940675539     0.000000000000
       2       -0.004819698486     0.004940675539     0.000000000000
       3       -0.004717698765     0.001420203438     0.000000000000
       4        0.004717698765    -0.001420203438     0.000000000000


*** tstop() called on b1-21.compute.lan at Thu Feb 11 14:04:47 2021
Module time:
	user time   =      31.16 seconds =       0.52 minutes
	system time =       0.11 seconds =       0.00 minutes
	total time  =         31 seconds =       0.52 minutes
Total time:
	user time   =     326.93 seconds =       5.45 minutes
	system time =       0.79 seconds =       0.01 minutes
	total time  =        328 seconds =       5.47 minutes

			-----------------------------------------
			 OPTKING 2.0: for geometry optimizations 
			  - R.A. King,  Bethel University        
			-----------------------------------------

	Previous internal coordinate definitions found.
	---Fragment 1 Geometry and Gradient---
	 S           0.0000000000        1.9456333075        0.0000000000
	 S           0.0000000000       -1.9456333075        0.0000000000
	 S          -3.6316162923        3.0622326830        0.0000000000
	 S           3.6316162923       -3.0622326830        0.0000000000
	             0.0048196985       -0.0049406755        0.0000000000
	            -0.0048196985        0.0049406755        0.0000000000
	            -0.0047176988        0.0014202034        0.0000000000
	             0.0047176988       -0.0014202034        0.0000000000

	---Fragment 1 Intrafragment Coordinates---
	 - Coordinate -           - BOHR/RAD -       - ANG/DEG -
	 R(1,2)           =         3.891267	       2.059170
	 R(1,3)           =         3.799399	       2.010555
	 R(2,4)           =         3.799399	       2.010555
	 B(1,2,4)         =         1.869089	     107.090895
	 B(2,1,3)         =         1.869089	     107.090895
	 D(3,1,2,4)       =         3.141593	     180.000000

	Current energy   :     -1592.9006750043

	Energy change for the previous step:
		Projected    :        -0.0018527541
		Actual       :        -0.0007033256

	Performing BFGS update.
	Previous computed or guess Hessian on step 1.
	Steps to be used in Hessian update: 1
	Taking RFO optimization step.
	Going to follow RFO solution 1.
	Using RFO vector 1.
	Norm of target step-size    0.04352
	Projected energy change by RFO approximation:         0.0002325547

	Back-transformation to cartesian coordinates...
	Successfully converged to displaced geometry.

	--- Internal Coordinate Step in ANG or DEG, aJ/ANG or AJ/DEG ---
	 ---------------------------------------------------------------------------
	   Coordinate                Previous        Force       Change         New 
	   ----------                --------       ------       ------       ------
	    1 R(1,2)          =      2.059170     0.029104     0.010472     2.069642
	    2 R(1,3)          =      2.010555    -0.040641    -0.013973     1.996582
	    3 R(2,4)          =      2.010555    -0.040641    -0.013973     1.996582
	    4 B(1,2,4)        =    107.090895     0.000013     0.421317   107.512212
	    5 B(2,1,3)        =    107.090895     0.000013     0.421317   107.512212
	    6 D(3,1,2,4)      =    180.000000    -0.000000     0.000000   180.000000
	 ---------------------------------------------------------------------------
	Successfully symmetrized geometry.

  ==> Convergence Check <==

  Measures of convergence in internal coordinates in au.
  Criteria marked as inactive (o), active & met (*), and active & unmet ( ).
  ---------------------------------------------------------------------------------------------
   Step     Total Energy     Delta E     MAX Force     RMS Force      MAX Disp      RMS Disp   
  ---------------------------------------------------------------------------------------------
    Convergence Criteria             o    2.00e-06 *    1.00e-06 *    6.00e-06 *    4.00e-06 *
  ---------------------------------------------------------------------------------------------
      2   -1592.90067500   -7.03e-04 o    4.93e-03      3.19e-03      2.64e-02      1.78e-02    ~
  ---------------------------------------------------------------------------------------------

	Writing optimization data to binary file.
	Structure for next step:
	Cartesian Geometry (in Angstrom)
	    S    -0.0081136426   1.0347889584   0.0000000000
	    S     0.0081136426  -1.0347889584   0.0000000000
	    S    -1.9168118138   1.6206312292   0.0000000000
	    S     1.9168118138  -1.6206312292   0.0000000000
			--------------------------
			 OPTKING Finished Execution 
			--------------------------

    Structure for next step:
    Molecular point group: c2h
    Full point group: C2h

    Geometry (in Angstrom), charge = -1, multiplicity = 2:

    S       
    S             1          r1
    S             1          r2      2          a1
    S             2          r3      1          a2      3          d1

    a1        =  107.5122122733
    a2        =  107.5122122733
    d1        = -180.0000000000
    r1        =    2.0696415420
    r2        =    1.9965820560
    r3        =    1.9965820560

gradient() will perform analytic gradient computation.

*** tstart() called on b1-21.compute.lan
*** at Thu Feb 11 14:04:48 2021

   => Loading Basis Set <=

    Name: AUG-CC-PVTZ
    Role: ORBITAL
    Keyword: BASIS
    atoms 1-4 entry S          line   906 file /apps/gb/PSI4/1.4.0/share/psi4/basis/aug-cc-pvtz.gbs 

   => WB97X-D: Empirical Dispersion <=

    Chai and Head-Gordon Dispersion Correction
    Chai, J.-D.; Head-Gordon, M. (2010), J. Chem. Phys., 132: 6615-6620

        s6 =       1.000000


         ---------------------------------------------------------
                                   SCF
               by Justin Turney, Rob Parrish, Andy Simmonett
                          and Daniel G. A. Smith
                              UKS Reference
                        1 Threads,  15258 MiB Core
         ---------------------------------------------------------

  ==> Geometry <==

    Molecular point group: c2h
    Full point group: C2h

    Geometry (in Angstrom), charge = -1, multiplicity = 2:

       Center              X                  Y                   Z               Mass       
    ------------   -----------------  -----------------  -----------------  -----------------
         S            0.000000000000     1.034820770990     0.000000000000    31.972071174400
         S            0.000000000000    -1.034820770990     0.000000000000    31.972071174400
         S           -1.904046138716     1.635610424802     0.000000000000    31.972071174400
         S            1.904046138716    -1.635610424802     0.000000000000    31.972071174400

  Running in c2h symmetry.

  Rotational constants: A =      0.46180  B =      0.03877  C =      0.03576 [cm^-1]
  Rotational constants: A =  13844.52907  B =   1162.16948  C =   1072.16715 [MHz]
  Nuclear repulsion =  310.751783275058585

  Charge       = -1
  Multiplicity = 2
  Electrons    = 65
  Nalpha       = 33
  Nbeta        = 32

  ==> Algorithm <==

  SCF Algorithm Type is DF.
  DIIS enabled.
  MOM disabled.
  Fractional occupation disabled.
  Guess Type is READ.
  Energy threshold   = 1.00e-08
  Density threshold  = 1.00e-08
  Integral threshold = 0.00e+00

  ==> Primary Basis <==

  Basis Set: AUG-CC-PVTZ
    Blend: AUG-CC-PVTZ
    Number of shells: 64
    Number of basis function: 200
    Number of Cartesian functions: 236
    Spherical Harmonics?: true
    Max angular momentum: 3

  ==> DFT Potential <==

   => Composite Functional: WB97X-D <= 

    wB97X-D Hyb-GGA Exchange-Correlation Functional

    J.-D. Chai and M. Head-Gordon, Phys. Chem. Chem. Phys. 10, 6615 (2008)

    Deriv               =              1
    GGA                 =           TRUE
    Meta                =          FALSE

    Exchange Hybrid     =           TRUE
    MP2 Hybrid          =          FALSE

   => Exchange-Correlation Functionals <=

    1.0000   wB97D range-separated functional

   => Exact (HF) Exchange <=

    0.7780            HF,LR [omega = 0.2000]
    0.2220               HF 

   => Molecular Quadrature <=

    Radial Scheme          =       TREUTLER
    Pruning Scheme         =           NONE
    Nuclear Scheme         =       TREUTLER

    BS radius alpha        =              1
    Pruning alpha          =              1
    Radial Points          =             99
    Spherical Points       =            590
    Total Points           =         225726
    Total Blocks           =           1846
    Max Points             =            256
    Max Functions          =            200
    Weights Tolerance      =       1.00E-15

   => Loading Basis Set <=

    Name: (AUG-CC-PVTZ AUX)
    Role: JKFIT
    Keyword: DF_BASIS_SCF
    atoms 1-4 entry S          line   730 file /apps/gb/PSI4/1.4.0/share/psi4/basis/aug-cc-pvtz-jkfit.gbs 

   => Loading Basis Set <=

    Name: AUG-CC-PVTZ
    Role: ORBITAL
    Keyword: BASIS
    atoms 1-4 entry S          line   906 file /apps/gb/PSI4/1.4.0/share/psi4/basis/aug-cc-pvtz.gbs 

  Reading orbitals from file 180, no projection.

  ==> Pre-Iterations <==

   -------------------------------------------------------
    Irrep   Nso     Nmo     Nalpha   Nbeta   Ndocc  Nsocc
   -------------------------------------------------------
     Ag        66      66       0       0       0       0
     Bg        34      34       0       0       0       0
     Au        34      34       0       0       0       0
     Bu        66      66       0       0       0       0
   -------------------------------------------------------
    Total     200     200      33      32      32       1
   -------------------------------------------------------

  ==> Integral Setup <==

  ==> DiskDFJK: Density-Fitted J/K Matrices <==

    J tasked:                  Yes
    K tasked:                  Yes
    wK tasked:                 Yes
    Omega:               2.000E-01
    OpenMP threads:              1
    Integrals threads:           1
    Memory [MiB]:            10321
    Algorithm:                Core
    Integral Cache:           NONE
    Schwarz Cutoff:          1E-12
    Fitting Condition:       1E-10

   => Auxiliary Basis Set <=

  Basis Set: (AUG-CC-PVTZ AUX)
    Blend: AUG-CC-PVTZ-JKFIT
    Number of shells: 168
    Number of basis function: 584
    Number of Cartesian functions: 720
    Spherical Harmonics?: true
    Max angular momentum: 4

  Cached 100.0% of DFT collocation blocks in 1.097 [GiB].

  Minimum eigenvalue in the overlap matrix is 2.0098408015E-04.
  Using Symmetric Orthogonalization.

  SCF Guess: Orbitals guess was supplied from a previous computation.

  ==> Iterations <==

                           Total Energy        Delta E     RMS |[F,P]|

   @DF-UKS iter   0: -1592.90651878098311   -1.59291e+03   5.56207e-04 
   @DF-UKS iter   1: -1592.90081698440395    5.70180e-03   6.61352e-05 DIIS
   @DF-UKS iter   2: -1592.90084481495069   -2.78305e-05   4.48397e-05 DIIS
   @DF-UKS iter   3: -1592.90085730831106   -1.24934e-05   1.05402e-05 DIIS
   @DF-UKS iter   4: -1592.90085844347118   -1.13516e-06   5.69663e-06 DIIS
   @DF-UKS iter   5: -1592.90085897008339   -5.26612e-07   1.73526e-06 DIIS
   @DF-UKS iter   6: -1592.90085901895532   -4.88719e-08   3.41719e-07 DIIS
   @DF-UKS iter   7: -1592.90085902338387   -4.42856e-09   9.73612e-08 DIIS
   @DF-UKS iter   8: -1592.90085902373994   -3.56067e-10   4.71426e-08 DIIS
   @DF-UKS iter   9: -1592.90085902383680   -9.68612e-11   2.13538e-08 DIIS
   @DF-UKS iter  10: -1592.90085902385908   -2.22826e-11   7.34813e-09 DIIS
  Energy and wave function converged.


  ==> Post-Iterations <==

   @Spin Contamination Metric:   5.879239955E-03
   @S^2 Expected:                7.500000000E-01
   @S^2 Observed:                7.558792400E-01
   @S   Expected:                5.000000000E-01
   @S   Observed:                5.000000000E-01

    Orbital Energies [Eh]
    ---------------------

    Alpha Occupied:                                                       

       1Bu   -88.960941     1Ag   -88.960939     2Bu   -88.876532  
       2Ag   -88.876530     3Ag    -7.964727     3Bu    -7.964660  
       4Ag    -7.884825     4Bu    -7.884825     5Ag    -5.913702  
       5Bu    -5.913484     6Ag    -5.909653     6Bu    -5.909618  
       1Au    -5.909552     1Bg    -5.909539     7Ag    -5.835923  
       7Bu    -5.835923     2Bg    -5.828777     2Au    -5.828777  
       8Ag    -5.826854     8Bu    -5.826854     9Ag    -0.786508  
       9Bu    -0.704327    10Ag    -0.577669    10Bu    -0.506378  
      11Ag    -0.342213    11Bu    -0.315071     3Au    -0.310372  
      12Ag    -0.251720     3Bg    -0.238185    12Bu    -0.181830  
      13Ag    -0.145876     4Au    -0.145452     4Bg    -0.114180  

    Alpha Virtual:                                                        

      13Bu     0.153905    14Bu     0.166485    14Ag     0.174787  
      15Bu     0.184781    15Ag     0.194519     5Au     0.211549  
      16Bu     0.213295    16Ag     0.219944     5Bg     0.226279  
       6Bg     0.232912    17Ag     0.241886    17Bu     0.245382  
      18Ag     0.251003    18Bu     0.253168     6Au     0.254810  
      19Ag     0.286468    19Bu     0.327311    20Ag     0.336930  
       7Au     0.344723    20Bu     0.345019     7Bg     0.361945  
      21Bu     0.396179    21Ag     0.404653     8Bg     0.424119  
      22Bu     0.425354    22Ag     0.429913     8Au     0.431793  
      23Bu     0.437822    23Ag     0.450911     9Au     0.456650  
      24Ag     0.492323     9Bg     0.500216    24Bu     0.503346  
      25Ag     0.519764    10Au     0.533045    10Bg     0.533452  
      25Bu     0.536692    26Bu     0.568690    26Ag     0.591929  
      11Au     0.613902    11Bg     0.678430    27Bu     0.687918  
      27Ag     0.698985    12Au     0.704062    28Ag     0.714469  
      12Bg     0.716803    28Bu     0.719648    13Au     0.726559  
      29Bu     0.733938    29Ag     0.735489    30Ag     0.739759  
      14Au     0.744748    30Bu     0.761499    31Ag     0.766076  
      31Bu     0.787953    13Bg     0.790278    32Ag     0.795313  
      15Au     0.820618    14Bg     0.823277    33Ag     0.823586  
      32Bu     0.836869    34Ag     0.842669    33Bu     0.852902  
      15Bg     0.867934    16Bg     0.898720    35Ag     0.901741  
      16Au     0.918767    34Bu     0.927006    17Bg     0.947131  
      17Au     0.949145    36Ag     0.958079    35Bu     0.962245  
      36Bu     0.981852    37Ag     0.991724    18Bg     0.999519  
      38Ag     1.003276    37Bu     1.015623    18Au     1.070539  
      38Bu     1.101560    39Ag     1.157682    19Au     1.173925  
      39Bu     1.180137    19Bg     1.190637    20Au     1.194171  
      40Ag     1.212069    40Bu     1.217116    20Bg     1.265790  
      41Bu     1.290363    41Ag     1.300620    42Ag     1.327019  
      21Au     1.342902    42Bu     1.349258    21Bg     1.360672  
      22Au     1.389227    43Bu     1.392116    22Bg     1.409499  
      43Ag     1.415417    44Ag     1.473154    44Bu     1.542332  
      45Ag     1.547221    45Bu     1.590037    46Ag     1.684518  
      46Bu     1.709022    23Au     1.987341    47Ag     1.987721  
      23Bg     2.014637    47Bu     2.031462    24Bg     2.038516  
      48Bu     2.043905    48Ag     2.045844    24Au     2.064655  
      25Au     2.072565    49Bu     2.078705    49Ag     2.085098  
      50Bu     2.101180    25Bg     2.114676    26Au     2.157185  
      50Ag     2.168779    51Bu     2.171696    27Au     2.181142  
      26Bg     2.205315    51Ag     2.208840    28Au     2.218126  
      52Bu     2.220230    27Bg     2.221181    52Ag     2.238384  
      28Bg     2.248405    29Au     2.248675    53Ag     2.276760  
      53Bu     2.306203    54Ag     2.333347    30Au     2.343276  
      54Bu     2.362380    55Ag     2.364970    55Bu     2.368705  
      29Bg     2.370415    56Bu     2.399786    31Au     2.414388  
      30Bg     2.425589    31Bg     2.460087    57Bu     2.468062  
      56Ag     2.474308    57Ag     2.506479    32Au     2.510862  
      58Ag     2.513085    33Au     2.520606    32Bg     2.536476  
      58Bu     2.545568    59Bu     2.592512    59Ag     2.600896  
      60Bu     2.630784    60Ag     2.689939    33Bg     2.718096  
      61Ag     2.748462    61Bu     2.755416    34Au     2.790761  
      34Bg     2.806465    62Ag     2.861924    62Bu     2.891710  
      63Ag     2.907069    63Bu     3.826895    64Ag     3.878704  
      64Bu     3.920772    65Ag     5.071968    65Bu     5.429274  
      66Ag     5.826346    66Bu     5.979216  

    Beta Occupied:                                                        

       1Bu   -88.958869     1Ag   -88.958866     2Bu   -88.875530  
       2Ag   -88.875529     3Ag    -7.962581     3Bu    -7.962499  
       4Ag    -7.883749     4Bu    -7.883748     5Ag    -5.912331  
       5Bu    -5.912109     6Ag    -5.908298     6Bu    -5.908266  
       1Au    -5.902346     1Bg    -5.902328     7Ag    -5.835361  
       7Bu    -5.835361     8Ag    -5.826155     8Bu    -5.826155  
       2Au    -5.825085     2Bg    -5.825085     9Ag    -0.777371  
       9Bu    -0.695927    10Ag    -0.569480    10Bu    -0.488429  
      11Ag    -0.335953    11Bu    -0.309996     3Au    -0.283488  
      12Ag    -0.245886     3Bg    -0.211238    12Bu    -0.178402  
      13Ag    -0.143018     4Au    -0.104804  

    Beta Virtual:                                                         

       4Bg     0.081761    13Bu     0.155544    14Bu     0.169343  
      14Ag     0.176044    15Bu     0.188203    15Ag     0.195713  
       5Au     0.212791    16Bu     0.216529    16Ag     0.220270  
       5Bg     0.229865     6Bg     0.235750    17Ag     0.244639  
      17Bu     0.246043    18Ag     0.251736    18Bu     0.254446  
       6Au     0.257103    19Ag     0.287595    19Bu     0.327150  
      20Ag     0.337529    20Bu     0.345649     7Au     0.349571  
       7Bg     0.367206    21Bu     0.397095    21Ag     0.406528  
       8Bg     0.427391    22Bu     0.427655    22Ag     0.431334  
       8Au     0.439074    23Bu     0.440664    23Ag     0.453583  
       9Au     0.460650    24Ag     0.492894     9Bg     0.504110  
      24Bu     0.504275    25Ag     0.520911    10Bg     0.534923  
      10Au     0.537152    25Bu     0.537798    26Bu     0.569540  
      26Ag     0.593517    11Au     0.618719    11Bg     0.681009  
      27Bu     0.688439    27Ag     0.699775    12Au     0.707499  
      28Ag     0.715585    28Bu     0.722607    12Bg     0.723589  
      13Au     0.731989    29Bu     0.735316    29Ag     0.737520  
      30Ag     0.740598    14Au     0.751554    30Bu     0.763105  
      31Ag     0.767692    31Bu     0.789797    13Bg     0.793513  
      32Ag     0.799693    33Ag     0.824518    15Au     0.825798  
      14Bg     0.826681    32Bu     0.842279    34Ag     0.850232  
      33Bu     0.859096    15Bg     0.875573    35Ag     0.904111  
      16Bg     0.907441    16Au     0.927245    34Bu     0.928741  
      17Au     0.950593    17Bg     0.952321    36Ag     0.960105  
      35Bu     0.966016    36Bu     0.984678    37Ag     0.994992  
      18Bg     1.000972    38Ag     1.004854    37Bu     1.017197  
      18Au     1.072436    38Bu     1.103839    39Ag     1.159692  
      19Au     1.177243    39Bu     1.181826    19Bg     1.193752  
      20Au     1.197038    40Ag     1.213784    40Bu     1.219886  
      20Bg     1.268207    41Bu     1.291234    41Ag     1.301564  
      42Ag     1.329963    21Au     1.345647    42Bu     1.350419  
      21Bg     1.366139    22Au     1.393457    43Bu     1.394634  
      22Bg     1.414744    43Ag     1.418551    44Ag     1.473837  
      44Bu     1.543606    45Ag     1.551636    45Bu     1.595946  
      46Ag     1.690793    46Bu     1.717506    47Ag     1.993952  
      23Au     1.995127    23Bg     2.023006    47Bu     2.037238  
      24Bg     2.043956    48Bu     2.047604    48Ag     2.051846  
      24Au     2.070765    25Au     2.079186    49Bu     2.083839  
      49Ag     2.086557    50Bu     2.103144    25Bg     2.124281  
      26Au     2.168834    50Ag     2.174586    51Bu     2.174890  
      27Au     2.191173    51Ag     2.214170    26Bg     2.215658  
      52Bu     2.225047    28Au     2.227501    27Bg     2.228399  
      52Ag     2.243193    28Bg     2.257062    29Au     2.265095  
      53Ag     2.278845    53Bu     2.309605    54Ag     2.335172  
      30Au     2.349797    54Bu     2.364320    55Ag     2.370844  
      55Bu     2.372759    29Bg     2.377530    56Bu     2.405697  
      31Au     2.419256    30Bg     2.438655    31Bg     2.467987  
      57Bu     2.473313    56Ag     2.479488    57Ag     2.510224  
      32Au     2.518432    58Ag     2.518798    33Au     2.530533  
      32Bg     2.544216    58Bu     2.552571    59Bu     2.598170  
      59Ag     2.605755    60Bu     2.634006    60Ag     2.691990  
      33Bg     2.730191    61Ag     2.752361    61Bu     2.758191  
      34Au     2.799686    34Bg     2.815312    62Ag     2.863694  
      62Bu     2.893274    63Ag     2.909263    63Bu     3.829986  
      64Ag     3.881067    64Bu     3.923231    65Ag     5.076409  
      65Bu     5.432409    66Ag     5.830305    66Bu     5.984012  

    Final Occupation by Irrep:
             Ag    Bg    Au    Bu 
    DOCC [    13,    3,    4,   12 ]
    SOCC [     0,    1,    0,    0 ]

  @DF-UKS Final Energy: -1592.90085902385908

   => Energetics <=

    Nuclear Repulsion Energy =            310.7517832750585853
    One-Electron Energy =               -2831.0441782345792490
    Two-Electron Energy =                1002.5243998845750184
    DFT Exchange-Correlation Energy =     -75.1323325498339756
    Empirical Dispersion Energy =          -0.0005313990796084
    VV10 Nonlocal Energy =                  0.0000000000000000
    Total Energy =                      -1592.9008590238593115

  UHF NO Occupations:
  HONO-2 :    3 Bg 1.9995013
  HONO-1 :    4 Au 1.9986056
  HONO-0 :    4 Bg 1.0000000
  LUNO+0 :    5 Au 0.0013944
  LUNO+1 :    5 Bg 0.0004987
  LUNO+2 :    6 Au 0.0004164
  LUNO+3 :   13 Bu 0.0002629


Computation Completed


Properties will be evaluated at   0.000000,   0.000000,   0.000000 [a0]

Properties computed using the SCF density matrix

  Nuclear Dipole Moment: [e a0]
     X:     0.0000      Y:     0.0000      Z:     0.0000

  Electronic Dipole Moment: [e a0]
     X:     0.0000      Y:     0.0000      Z:     0.0000

  Dipole Moment: [e a0]
     X:     0.0000      Y:     0.0000      Z:     0.0000     Total:     0.0000

  Dipole Moment: [D]
     X:     0.0000      Y:     0.0000      Z:     0.0000     Total:     0.0000


*** tstop() called on b1-21.compute.lan at Thu Feb 11 14:06:37 2021
Module time:
	user time   =     109.50 seconds =       1.82 minutes
	system time =       0.11 seconds =       0.00 minutes
	total time  =        109 seconds =       1.82 minutes
Total time:
	user time   =     436.44 seconds =       7.27 minutes
	system time =       0.90 seconds =       0.01 minutes
	total time  =        438 seconds =       7.30 minutes

*** tstart() called on b1-21.compute.lan
*** at Thu Feb 11 14:06:37 2021


         ------------------------------------------------------------
                                   SCF GRAD                          
                          Rob Parrish, Justin Turney,                
                       Andy Simmonett, and Alex Sokolov              
         ------------------------------------------------------------

  ==> Geometry <==

    Molecular point group: c2h
    Full point group: C2h

    Geometry (in Angstrom), charge = -1, multiplicity = 2:

       Center              X                  Y                   Z               Mass       
    ------------   -----------------  -----------------  -----------------  -----------------
         S            0.000000000000     1.034820770990     0.000000000000    31.972071174400
         S            0.000000000000    -1.034820770990     0.000000000000    31.972071174400
         S           -1.904046138716     1.635610424802     0.000000000000    31.972071174400
         S            1.904046138716    -1.635610424802     0.000000000000    31.972071174400

  Nuclear repulsion =  310.751783275058585

  ==> Basis Set <==

  Basis Set: AUG-CC-PVTZ
    Blend: AUG-CC-PVTZ
    Number of shells: 64
    Number of basis function: 200
    Number of Cartesian functions: 236
    Spherical Harmonics?: true
    Max angular momentum: 3

  ==> DFJKGrad: Density-Fitted SCF Gradients <==

    Gradient:                    1
    J tasked:                  Yes
    K tasked:                  Yes
    wK tasked:                 Yes
    Omega:               2.000E-01
    OpenMP threads:              1
    Integrals threads:           1
    Memory [MiB]:            11444
    Schwarz Cutoff:          0E+00
    Fitting Condition:       1E-10

   => Auxiliary Basis Set <=

  Basis Set: (AUG-CC-PVTZ AUX)
    Blend: AUG-CC-PVTZ-JKFIT
    Number of shells: 168
    Number of basis function: 584
    Number of Cartesian functions: 720
    Spherical Harmonics?: true
    Max angular momentum: 4

  ==> DFT Potential <==

   => Composite Functional: WB97X-D <= 

    wB97X-D Hyb-GGA Exchange-Correlation Functional

    J.-D. Chai and M. Head-Gordon, Phys. Chem. Chem. Phys. 10, 6615 (2008)

    Deriv               =              1
    GGA                 =           TRUE
    Meta                =          FALSE

    Exchange Hybrid     =           TRUE
    MP2 Hybrid          =          FALSE

   => Exchange-Correlation Functionals <=

    1.0000   wB97D range-separated functional

   => Exact (HF) Exchange <=

    0.7780            HF,LR [omega = 0.2000]
    0.2220               HF 

   => Molecular Quadrature <=

    Radial Scheme          =       TREUTLER
    Pruning Scheme         =           NONE
    Nuclear Scheme         =       TREUTLER

    BS radius alpha        =              1
    Pruning alpha          =              1
    Radial Points          =             99
    Spherical Points       =            590
    Total Points           =         225726
    Total Blocks           =           1846
    Max Points             =            256
    Max Functions          =            200
    Weights Tolerance      =       1.00E-15


  -Total Gradient:
     Atom            X                  Y                   Z
    ------   -----------------  -----------------  -----------------
       1       -0.000266608503    -0.001952774383     0.000000000000
       2        0.000266608503     0.001952774383     0.000000000000
       3       -0.000087272697     0.000260305746    -0.000000000000
       4        0.000087272697    -0.000260305746    -0.000000000000


*** tstop() called on b1-21.compute.lan at Thu Feb 11 14:07:07 2021
Module time:
	user time   =      30.07 seconds =       0.50 minutes
	system time =       0.09 seconds =       0.00 minutes
	total time  =         30 seconds =       0.50 minutes
Total time:
	user time   =     466.51 seconds =       7.78 minutes
	system time =       0.99 seconds =       0.02 minutes
	total time  =        468 seconds =       7.80 minutes

			-----------------------------------------
			 OPTKING 2.0: for geometry optimizations 
			  - R.A. King,  Bethel University        
			-----------------------------------------

	Previous internal coordinate definitions found.
	---Fragment 1 Geometry and Gradient---
	 S           0.0000000000        1.9555278461        0.0000000000
	 S           0.0000000000       -1.9555278461        0.0000000000
	 S          -3.5981257324        3.0908557508        0.0000000000
	 S           3.5981257324       -3.0908557508        0.0000000000
	            -0.0002666085       -0.0019527744        0.0000000000
	             0.0002666085        0.0019527744        0.0000000000
	            -0.0000872727        0.0002603057       -0.0000000000
	             0.0000872727       -0.0002603057       -0.0000000000

	---Fragment 1 Intrafragment Coordinates---
	 - Coordinate -           - BOHR/RAD -       - ANG/DEG -
	 R(1,2)           =         3.911056	       2.069642
	 R(1,3)           =         3.772993	       1.996582
	 R(2,4)           =         3.772993	       1.996582
	 B(1,2,4)         =         1.876442	     107.512212
	 B(2,1,3)         =         1.876442	     107.512212
	 D(3,1,2,4)       =         3.141593	     180.000000

	Current energy   :     -1592.9008590239

	Energy change for the previous step:
		Projected    :         0.0002325547
		Actual       :        -0.0001840196

	Performing BFGS update.
	Previous computed or guess Hessian on step 1.
	Steps to be used in Hessian update: 2 1
	Taking RFO optimization step.
	Going to follow RFO solution 1.
	Using RFO vector 1.
	Norm of target step-size    0.00822
	Projected energy change by RFO approximation:        -0.0000158233

	Back-transformation to cartesian coordinates...
	Successfully converged to displaced geometry.

	--- Internal Coordinate Step in ANG or DEG, aJ/ANG or AJ/DEG ---
	 ---------------------------------------------------------------------------
	   Coordinate                Previous        Force       Change         New 
	   ----------                --------       ------       ------       ------
	    1 R(1,2)          =      2.069642     0.014108     0.003849     2.073491
	    2 R(1,3)          =      1.996582    -0.001416    -0.001020     1.995562
	    3 R(2,4)          =      1.996582    -0.001416    -0.001020     1.995562
	    4 B(1,2,4)        =    107.512212    -0.000057    -0.109287   107.402925
	    5 B(2,1,3)        =    107.512212    -0.000057    -0.109287   107.402925
	    6 D(3,1,2,4)      =    180.000000     0.000000     0.000000   180.000000
	 ---------------------------------------------------------------------------
	Successfully symmetrized geometry.

  ==> Convergence Check <==

  Measures of convergence in internal coordinates in au.
  Criteria marked as inactive (o), active & met (*), and active & unmet ( ).
[...]
     121Ap     2.748562   122Ap     2.755774    67App    2.791329  
      68App    2.807051   123Ap     2.861136   124Ap     2.891894  
     125Ap     2.904183   126Ap     3.820034   127Ap     3.878669  
     128Ap     3.920151   129Ap     5.066700   130Ap     5.428724  
     131Ap     5.821478   132Ap     5.980461  

    Beta Occupied:                                                        

       1Ap   -88.958828     2Ap   -88.958798     3Ap   -88.875563  
       4Ap   -88.875536     5Ap    -7.962460     6Ap    -7.962375  
       7Ap    -7.883796     8Ap    -7.883762     9Ap    -5.912204  
      10Ap    -5.911989    11Ap    -5.908201    12Ap    -5.908157  
       1App   -5.902233     2App   -5.902197    13Ap    -5.835387  
      14Ap    -5.835356    15Ap    -5.826214    16Ap    -5.826181  
       3App   -5.825134     4App   -5.825100    17Ap    -0.776392  
      18Ap    -0.696202    19Ap    -0.568813    20Ap    -0.488644  
      21Ap    -0.335586    22Ap    -0.309552     5App   -0.282895  
      23Ap    -0.246233     6App   -0.211459    24Ap    -0.178697  
      25Ap    -0.142736     7App   -0.104385  

    Beta Virtual:                                                         

       8App    0.081441    26Ap     0.155644    27Ap     0.168763  
      28Ap     0.176038    29Ap     0.187714    30Ap     0.195708  
       9App    0.212801    31Ap     0.216904    32Ap     0.220266  
      10App    0.229865    11App    0.235723    33Ap     0.244633  
      34Ap     0.245990    35Ap     0.251798    36Ap     0.254223  
      12App    0.257136    37Ap     0.287544    38Ap     0.327073  
      39Ap     0.337613    40Ap     0.345733    13App    0.349415  
      14App    0.367448    41Ap     0.396926    42Ap     0.406472  
      15App    0.427322    43Ap     0.427374    44Ap     0.431533  
      16App    0.438839    45Ap     0.440569    46Ap     0.453780  
      17App    0.460882    47Ap     0.492794    18App    0.504105  
      48Ap     0.504248    49Ap     0.520944    19App    0.534821  
      20App    0.537005    50Ap     0.537440    51Ap     0.569427  
      52Ap     0.593486    21App    0.618912    22App    0.680911  
      53Ap     0.688507    54Ap     0.699592    23App    0.707855  
      55Ap     0.716084    56Ap     0.722646    24App    0.723650  
      25App    0.731873    57Ap     0.735241    58Ap     0.737513  
      59Ap     0.740632    26App    0.751435    60Ap     0.763177  
      61Ap     0.767333    62Ap     0.789589    27App    0.793352  
      63Ap     0.799675    64Ap     0.824263    28App    0.825913  
      29App    0.826660    65Ap     0.842695    66Ap     0.849842  
      67Ap     0.859080    30App    0.875672    68Ap     0.904110  
      31App    0.906923    32App    0.927241    69Ap     0.928344  
      33App    0.950355    34App    0.951990    70Ap     0.959696  
      71Ap     0.965474    72Ap     0.983718    73Ap     0.995446  
      35App    1.000917    74Ap     1.004678    75Ap     1.017118  
      36App    1.072643    76Ap     1.103444    77Ap     1.159316  
      37App    1.177185    78Ap     1.180691    38App    1.193538  
      39App    1.196137    79Ap     1.213651    80Ap     1.219986  
      40App    1.268498    81Ap     1.291737    82Ap     1.301728  
      83Ap     1.329924    41App    1.345042    84Ap     1.349107  
      42App    1.365364    43App    1.393317    85Ap     1.394127  
      44App    1.414564    86Ap     1.417985    87Ap     1.473215  
      88Ap     1.542662    89Ap     1.551530    90Ap     1.595730  
      91Ap     1.689452    92Ap     1.717677    93Ap     1.994027  
      45App    1.995082    46App    2.023068    94Ap     2.037755  
      47App    2.043927    95Ap     2.046758    96Ap     2.051761  
      48App    2.070433    49App    2.078813    97Ap     2.083297  
      98Ap     2.086713    99Ap     2.104345    50App    2.124689  
      51App    2.168711   100Ap     2.174283   101Ap     2.175494  
      52App    2.192123   102Ap     2.214030    53App    2.215602  
     103Ap     2.225184    54App    2.227510    55App    2.228627  
     104Ap     2.243773    56App    2.257144    57App    2.265208  
     105Ap     2.278643   106Ap     2.309715   107Ap     2.335563  
      58App    2.349399   108Ap     2.364175   109Ap     2.370559  
     110Ap     2.372677    59App    2.377342   111Ap     2.405470  
      60App    2.419107    61App    2.436500    62App    2.468596  
     112Ap     2.473622   113Ap     2.478229   114Ap     2.509497  
      63App    2.517781   115Ap     2.517984    64App    2.530935  
      65App    2.544554   116Ap     2.551737   117Ap     2.598553  
     118Ap     2.602074   119Ap     2.632984   120Ap     2.691231  
      66App    2.725838   121Ap     2.752450   122Ap     2.758565  
      67App    2.800256    68App    2.815912   123Ap     2.862910  
     124Ap     2.893462   125Ap     2.906371   126Ap     3.823140  
     127Ap     3.881026   128Ap     3.922590   129Ap     5.071159  
     130Ap     5.431873   131Ap     5.825419   132Ap     5.985245  

    Final Occupation by Irrep:
             Ap   App 
    DOCC [    25,    7 ]
    SOCC [     0,    1 ]

  @DF-UKS Final Energy: -1592.90087171983646

   => Energetics <=

    Nuclear Repulsion Energy =            310.5501531105680897
    One-Electron Energy =               -2830.6476719320162374
    Two-Electron Energy =                1002.3284385972731343
    DFT Exchange-Correlation Energy =     -75.1312587134145957
    Empirical Dispersion Energy =          -0.0005327822467842
    VV10 Nonlocal Energy =                  0.0000000000000000
    Total Energy =                      -1592.9008717198362319

  UHF NO Occupations:
  HONO-2 :    6App 1.9995015
  HONO-1 :    7App 1.9986057
  HONO-0 :    8App 1.0000000
  LUNO+0 :    9App 0.0013943
  LUNO+1 :   10App 0.0004985
  LUNO+2 :   11App 0.0004177
  LUNO+3 :   26 Ap 0.0002606


Computation Completed


Properties will be evaluated at   0.000000,   0.000000,   0.000000 [a0]

Properties computed using the SCF density matrix

  Nuclear Dipole Moment: [e a0]
     X:     0.0000      Y:    -0.0000      Z:     0.0000

  Electronic Dipole Moment: [e a0]
     X:     0.0006      Y:    -0.0011      Z:     0.0000

  Dipole Moment: [e a0]
     X:     0.0006      Y:    -0.0011      Z:     0.0000     Total:     0.0012

  Dipole Moment: [D]
     X:     0.0015      Y:    -0.0027      Z:     0.0000     Total:     0.0031


*** tstop() called on b1-21.compute.lan at Thu Feb 11 14:44:52 2021
Module time:
	user time   =     150.56 seconds =       2.51 minutes
	system time =       0.18 seconds =       0.00 minutes
	total time  =        151 seconds =       2.52 minutes
Total time:
	user time   =    2725.92 seconds =      45.43 minutes
	system time =       4.34 seconds =       0.07 minutes
	total time  =       2733 seconds =      45.55 minutes

*** tstart() called on b1-21.compute.lan
*** at Thu Feb 11 14:44:52 2021


         ------------------------------------------------------------
                                   SCF GRAD                          
                          Rob Parrish, Justin Turney,                
                       Andy Simmonett, and Alex Sokolov              
         ------------------------------------------------------------

  ==> Geometry <==

    Molecular point group: cs
    Full point group: Cs

    Geometry (in Angstrom), charge = -1, multiplicity = 2:

       Center              X                  Y                   Z               Mass       
    ------------   -----------------  -----------------  -----------------  -----------------
         S            0.000000000000     1.037873391990     0.000000000000    31.972071174400
         S            0.000000000000    -1.038341327229     0.000000000000    31.972071174400
         S           -1.904616238179     1.634676709066     0.000000000000    31.972071174400
         S            1.904616238179    -1.634208773828     0.000000000000    31.972071174400

  Nuclear repulsion =  310.550153110568090

  ==> Basis Set <==

  Basis Set: AUG-CC-PVTZ
    Blend: AUG-CC-PVTZ
    Number of shells: 64
    Number of basis function: 200
    Number of Cartesian functions: 236
    Spherical Harmonics?: true
    Max angular momentum: 3

  ==> DFJKGrad: Density-Fitted SCF Gradients <==

    Gradient:                    1
    J tasked:                  Yes
    K tasked:                  Yes
    wK tasked:                 Yes
    Omega:               2.000E-01
    OpenMP threads:              1
    Integrals threads:           1
    Memory [MiB]:            11444
    Schwarz Cutoff:          0E+00
    Fitting Condition:       1E-10

   => Auxiliary Basis Set <=

  Basis Set: (AUG-CC-PVTZ AUX)
    Blend: AUG-CC-PVTZ-JKFIT
    Number of shells: 168
    Number of basis function: 584
    Number of Cartesian functions: 720
    Spherical Harmonics?: true
    Max angular momentum: 4

  ==> DFT Potential <==

   => Composite Functional: WB97X-D <= 

    wB97X-D Hyb-GGA Exchange-Correlation Functional

    J.-D. Chai and M. Head-Gordon, Phys. Chem. Chem. Phys. 10, 6615 (2008)

    Deriv               =              1
    GGA                 =           TRUE
    Meta                =          FALSE

    Exchange Hybrid     =           TRUE
    MP2 Hybrid          =          FALSE

   => Exchange-Correlation Functionals <=

    1.0000   wB97D range-separated functional

   => Exact (HF) Exchange <=

    0.7780            HF,LR [omega = 0.2000]
    0.2220               HF 

   => Molecular Quadrature <=

    Radial Scheme          =       TREUTLER
    Pruning Scheme         =           NONE
    Nuclear Scheme         =       TREUTLER

    BS radius alpha        =              1
    Pruning alpha          =              1
    Radial Points          =             99
    Spherical Points       =            590
    Total Points           =         225728
    Total Blocks           =           1858
    Max Points             =            256
    Max Functions          =            200
    Weights Tolerance      =       1.00E-15


  -Total Gradient:
     Atom            X                  Y                   Z
    ------   -----------------  -----------------  -----------------
       1        0.000055499184    -0.000024507255     0.000000000000
       2        0.000033134657    -0.000023952862     0.000000000000
       3       -0.000026855758     0.000043863949     0.000000000000
       4       -0.000061982933     0.000004548231     0.000000000000


*** tstop() called on b1-21.compute.lan at Thu Feb 11 14:45:24 2021
Module time:
	user time   =      31.39 seconds =       0.52 minutes
	system time =       0.10 seconds =       0.00 minutes
	total time  =         32 seconds =       0.53 minutes
Total time:
	user time   =    2757.31 seconds =      45.96 minutes
	system time =       4.44 seconds =       0.07 minutes
	total time  =       2765 seconds =      46.08 minutes

         ----------------------------------------------------------
                                   FINDIF
                     R. A. King and Jonathon Misiewicz
         ---------------------------------------------------------

  Computing second-derivative from gradients using projected, 
  symmetry-adapted, cartesian coordinates.

  10 gradients passed in, including the reference geometry.
  Generating complete list of displacements from unique ones.

    Operation 3 takes plus displacements of irrep Au to minus ones.
    Operation 2 takes plus displacements of irrep Bu to minus ones.

-------------------------------------------------------------


  ==> Harmonic Vibrational Analysis <==

  non-mass-weighted Hessian:       Symmetric? True   Hermitian? True   Lin Dep Dim?  6 (0)
  projection of translations (True) and rotations (True) removed 6 degrees of freedom (6)
  total projector:                 Symmetric? True   Hermitian? True   Lin Dep Dim?  6 (6)
  mass-weighted Hessian:           Symmetric? True   Hermitian? True   Lin Dep Dim?  6 (0)
  pre-proj  low-frequency mode:    0.0000i [cm^-1]
  pre-proj  low-frequency mode:    0.0000i [cm^-1]
  pre-proj  low-frequency mode:    0.0000i [cm^-1]
  pre-proj  low-frequency mode:    0.0000i [cm^-1]
  pre-proj  low-frequency mode:    0.0000i [cm^-1]
  pre-proj  low-frequency mode:    0.0000  [cm^-1]
  pre-proj  low-frequency mode:   63.6861  [cm^-1]
  pre-proj  all modes:['0.0000i' '0.0000i' '0.0000i' '0.0000i' '0.0000i' '0.0000' '63.6861'
 '121.7653' '217.6840' '507.3256' '519.2517' '583.3796']
  projected mass-weighted Hessian: Symmetric? True   Hermitian? True   Lin Dep Dim?  6 (6)
  post-proj low-frequency mode:    0.0000i [cm^-1] (TR)
  post-proj low-frequency mode:    0.0000i [cm^-1] (TR)
  post-proj low-frequency mode:    0.0000  [cm^-1] (TR)
  post-proj low-frequency mode:    0.0000  [cm^-1] (TR)
  post-proj low-frequency mode:    0.0000  [cm^-1] (TR)
  post-proj low-frequency mode:    0.0000  [cm^-1] (TR)
  post-proj low-frequency mode:   63.6861  [cm^-1] (V)
  post-proj  all modes:['0.0000i' '0.0000i' '0.0000' '0.0000' '0.0000' '0.0000' '63.6861'
 '121.7653' '217.6840' '507.3256' '519.2517' '583.3796']

  Vibration                       7                   8                   9           
  Freq [cm^-1]                 63.6861             121.7653            217.6840       
  Irrep                           Au                  Bu                  Ag          
  Reduced mass [u]             31.9721             31.9721             31.9721        
  Force const [mDyne/A]         0.0764              0.2793              0.8926        
  Turning point v=0 [a0]        0.2432              0.1759              0.1315        
  RMS dev v=0 [a0 u^1/2]        0.9722              0.7031              0.5259        
  Char temp [K]                91.6301             175.1932            313.1989       
  ----------------------------------------------------------------------------------
      1   S                0.00  0.00  0.50    0.17  0.47  0.00   -0.38  0.14  0.00   
      2   S                0.00  0.00  0.50    0.17  0.47 -0.00    0.38 -0.14 -0.00   
      3   S                0.00 -0.00 -0.50   -0.17 -0.47  0.00   -0.32  0.48  0.00   
      4   S                0.00 -0.00 -0.50   -0.17 -0.47  0.00    0.32 -0.48 -0.00   

  Vibration                       10                  11                  12          
  Freq [cm^-1]                 507.3256            519.2517            583.3796       
  Irrep                           Ag                  Bu                  Ag          
  Reduced mass [u]             31.9721             31.9721             31.9721        
  Force const [mDyne/A]         4.8484              5.0790              6.4110        
  Turning point v=0 [a0]        0.0862              0.0852              0.0803        
  RMS dev v=0 [a0 u^1/2]        0.3445              0.3405              0.3212        
  Char temp [K]                729.9286            747.0876            839.3533       
  ----------------------------------------------------------------------------------
      1   S                0.11  0.69 -0.00    0.47 -0.17 -0.00    0.52 -0.05  0.00   
      2   S               -0.11 -0.69 -0.00    0.47 -0.17  0.00   -0.52  0.05 -0.00   
      3   S                0.03 -0.09 -0.00   -0.47  0.17  0.00   -0.46  0.11 -0.00   
      4   S               -0.03  0.09  0.00   -0.47  0.17 -0.00    0.46 -0.11  0.00   

  ==> Thermochemistry Components <==

  Entropy, S
    Electronic S            1.377 [cal/(mol K)]        5.763 [J/(mol K)]       0.00219507 [mEh/K] (multiplicity = 2)
    Translational S        40.451 [cal/(mol K)]      169.248 [J/(mol K)]       0.06446314 [mEh/K] (mol. weight = 127.8883 [u], P = 101325.00 [Pa])
    Rotational S           25.954 [cal/(mol K)]      108.592 [J/(mol K)]       0.04136035 [mEh/K] (symmetry no. = 2)
    Vibrational S          11.121 [cal/(mol K)]       46.530 [J/(mol K)]       0.01772229 [mEh/K]
  Total S                  78.904 [cal/(mol K)]      330.133 [J/(mol K)]       0.12574085 [mEh/K]
  Correction S              0.000 [cal/(mol K)]        0.000 [J/(mol K)]       0.00000000 [mEh/K]

  Constant volume heat capacity, Cv
    Electronic Cv           0.000 [cal/(mol K)]        0.000 [J/(mol K)]       0.00000000 [mEh/K]
    Translational Cv        2.981 [cal/(mol K)]       12.472 [J/(mol K)]       0.00475022 [mEh/K]
    Rotational Cv           2.981 [cal/(mol K)]       12.472 [J/(mol K)]       0.00475022 [mEh/K]
    Vibrational Cv          9.225 [cal/(mol K)]       38.598 [J/(mol K)]       0.01470123 [mEh/K]
  Total Cv                 15.187 [cal/(mol K)]       63.541 [J/(mol K)]       0.02420166 [mEh/K]
  Correction Cv             0.000 [cal/(mol K)]        0.000 [J/(mol K)]       0.00000000 [mEh/K]

  Constant pressure heat capacity, Cp
    Electronic Cp           0.000 [cal/(mol K)]        0.000 [J/(mol K)]       0.00000000 [mEh/K]
    Translational Cp        4.968 [cal/(mol K)]       20.786 [J/(mol K)]       0.00791703 [mEh/K]
    Rotational Cp           2.981 [cal/(mol K)]       12.472 [J/(mol K)]       0.00475022 [mEh/K]
    Vibrational Cp          9.225 [cal/(mol K)]       38.598 [J/(mol K)]       0.01470123 [mEh/K]
  Total Cp                 17.174 [cal/(mol K)]       71.856 [J/(mol K)]       0.02736847 [mEh/K]
  Correction Cp             0.000 [cal/(mol K)]        0.000 [J/(mol K)]       0.00000000 [mEh/K]

  ==> Thermochemistry Energy Analysis <==

  Raw electronic energy, E0
  Total E0, Electronic energy at well bottom at 0 [K]                -1592.90087174 [Eh]

  Zero-point energy, ZPE_vib = Sum_i nu_i / 2
    Electronic ZPE          0.000 [kcal/mol]        0.000 [kJ/mol]       0.00000000 [Eh]
    Translational ZPE       0.000 [kcal/mol]        0.000 [kJ/mol]       0.00000000 [Eh]
    Rotational ZPE          0.000 [kcal/mol]        0.000 [kJ/mol]       0.00000000 [Eh]
    Vibrational ZPE         2.878 [kcal/mol]       12.041 [kJ/mol]       0.00458616 [Eh]        1006.546 [cm^-1]
  Correction ZPE            2.878 [kcal/mol]       12.041 [kJ/mol]       0.00458616 [Eh]        1006.546 [cm^-1]
  Total ZPE, Electronic energy at 0 [K]                              -1592.89628558 [Eh]

  Thermal Energy, E (includes ZPE)
    Electronic E            0.000 [kcal/mol]        0.000 [kJ/mol]       0.00000000 [Eh]
    Translational E         0.889 [kcal/mol]        3.718 [kJ/mol]       0.00141628 [Eh]
    Rotational E            0.889 [kcal/mol]        3.718 [kJ/mol]       0.00141628 [Eh]
    Vibrational E           4.530 [kcal/mol]       18.952 [kJ/mol]       0.00721834 [Eh]
  Correction E              6.307 [kcal/mol]       26.389 [kJ/mol]       0.01005089 [Eh]
  Total E, Electronic energy at  298.15 [K]                          -1592.89082084 [Eh]

  Enthalpy, H_trans = E_trans + k_B * T
    Electronic H            0.000 [kcal/mol]        0.000 [kJ/mol]       0.00000000 [Eh]
    Translational H         1.481 [kcal/mol]        6.197 [kJ/mol]       0.00236046 [Eh]
    Rotational H            0.889 [kcal/mol]        3.718 [kJ/mol]       0.00141628 [Eh]
    Vibrational H           4.530 [kcal/mol]       18.952 [kJ/mol]       0.00721834 [Eh]
  Correction H              6.900 [kcal/mol]       28.868 [kJ/mol]       0.01099508 [Eh]
  Total H, Enthalpy at  298.15 [K]                                   -1592.88987666 [Eh]

  Gibbs free energy, G = H - T * S
    Electronic G           -0.411 [kcal/mol]       -1.718 [kJ/mol]      -0.00065446 [Eh]
    Translational G       -10.579 [kcal/mol]      -44.264 [kJ/mol]      -0.01685922 [Eh]
    Rotational G           -6.849 [kcal/mol]      -28.658 [kJ/mol]      -0.01091531 [Eh]
    Vibrational G           1.214 [kcal/mol]        5.079 [kJ/mol]       0.00193444 [Eh]
  Correction G            -16.626 [kcal/mol]      -69.561 [kJ/mol]      -0.02649456 [Eh]
  Total G, Free enthalpy at  298.15 [K]                              -1592.92736629 [Eh]

    Psi4 stopped on: Thursday, 11 February 2021 02:45PM
    Psi4 wall time for execution: 0:46:04.21

*** Psi4 exiting successfully. Buy a developer a beer!
