
    -----------------------------------------------------------------------
          Psi4: An Open-Source Ab Initio Electronic Structure Package
                               Psi4 1.4a2.dev191 

                         Git: Rev {master} 0ab5346 


    R. M. Parrish, L. A. Burns, D. G. A. Smith, A. C. Simmonett,
    A. E. DePrince III, E. G. Hohenstein, U. Bozkaya, A. Yu. Sokolov,
    R. Di Remigio, R. M. Richard, J. F. Gonthier, A. M. James,
    H. R. McAlexander, A. Kumar, M. Saitow, X. Wang, B. P. Pritchard,
    P. Verma, H. F. Schaefer III, K. Patkowski, R. A. King, E. F. Valeev,
    F. A. Evangelista, J. M. Turney, T. D. Crawford, and C. D. Sherrill,
    J. Chem. Theory Comput. 13(7) pp 3185--3197 (2017).
    (doi: 10.1021/acs.jctc.7b00174)


                         Additional Contributions by
    P. Kraus, H. Kruse, M. H. Lechner, M. C. Schieber, R. A. Shaw,
    A. Alenaizan, R. Galvelis, Z. L. Glick, S. Lehtola, and J. P. Misiewicz

    -----------------------------------------------------------------------


    Psi4 started on: Thursday, 11 February 2021 01:59PM

    Process ID: 22938
    Host:       b1-21.compute.lan
    PSIDATADIR: /apps/gb/PSI4/1.4.0/share/psi4
    Memory:     500.0 MiB
    Threads:    1
    
  ==> Input File <==

--------------------------------------------------------------------------
memory 16 GB

molecule  {
-2 1
S
S 1 r1
S 1 r2 2 a1
S 2 r3 1 a2 3 d1
r1 = 2.051
r2 = 2.024
r3 = 2.024
a1 = 105.1
a2 = 105.1
d1 = 180.0
}

set {
reference uks
basis aug-cc-pvtz
g_convergence gau_verytight
dft_spherical_points 590
dft_radial_points 99
}

optimize('wb97m-v')
frequencies('wb97m-v')

--------------------------------------------------------------------------

  Memory set to  14.901 GiB by Python driver.
gradient() will perform gradient computation by finite difference of analytic energies.

         ----------------------------------------------------------
                                   FINDIF
                     R. A. King and Jonathon Misiewicz
         ---------------------------------------------------------

  Using finite-differences of energies to determine gradients.
    Generating geometries for use with 3-point formula.
    Displacement size will be 5.00e-03.
    Number of atoms is 4.
    Number of symmetric SALCs is 3.
    Translations projected? 1. Rotations projected? 1.
    Number of geometries (including reference) is 7.

  //>>>>>>>>>>>>>>>>>>>>>>>>>>>>>>>>>>>//
  //    Loading displacement 1 of 7    //
  //<<<<<<<<<<<<<<<<<<<<<<<<<<<<<<<<<<<//

*** tstart() called on b1-21.compute.lan
*** at Thu Feb 11 13:59:48 2021

   => Loading Basis Set <=

    Name: AUG-CC-PVTZ
    Role: ORBITAL
    Keyword: BASIS
    atoms 1-4 entry S          line   906 file /apps/gb/PSI4/1.4.0/share/psi4/basis/aug-cc-pvtz.gbs 


         ---------------------------------------------------------
                                   SCF
               by Justin Turney, Rob Parrish, Andy Simmonett
                          and Daniel G. A. Smith
                              UKS Reference
                        1 Threads,  15258 MiB Core
         ---------------------------------------------------------

  ==> Geometry <==

    Molecular point group: c2h
    Full point group: C2h

    Geometry (in Angstrom), charge = -2, multiplicity = 1:

       Center              X                  Y                   Z               Mass       
    ------------   -----------------  -----------------  -----------------  -----------------
         S            0.000000000000     1.025500000000     0.000000000000    31.972071174400
         S            0.000000000000    -1.025500000000     0.000000000000    31.972071174400
         S           -1.954116604900     1.552761125493     0.000000000000    31.972071174400
         S            1.954116604900    -1.552761125493     0.000000000000    31.972071174400

  Running in c2h symmetry.

  Rotational constants: A =      0.43854  B =      0.03946  C =      0.03621 [cm^-1]
  Rotational constants: A =  13147.07888  B =   1183.12687  C =   1085.44584 [MHz]
  Nuclear repulsion =  310.800725288192780

  Charge       = -2
  Multiplicity = 1
  Electrons    = 66
  Nalpha       = 33
  Nbeta        = 33

  ==> Algorithm <==

  SCF Algorithm Type is DF.
  DIIS enabled.
  MOM disabled.
  Fractional occupation disabled.
  Guess Type is SAD.
  Energy threshold   = 1.00e-08
  Density threshold  = 1.00e-08
  Integral threshold = 0.00e+00

  ==> Primary Basis <==

  Basis Set: AUG-CC-PVTZ
    Blend: AUG-CC-PVTZ
    Number of shells: 64
    Number of basis function: 200
    Number of Cartesian functions: 236
    Spherical Harmonics?: true
    Max angular momentum: 3

  ==> DFT Potential <==

   => Composite Functional: WB97M-V <= 

    wB97M-V Hyb-GGA Exchange-Correlation Functional

    N. Mardirossian and M. Head-Gordon, J. Chem. Phys. 144, 214110 (2016)

    Deriv               =              1
    GGA                 =           TRUE
    Meta                =           TRUE

    Exchange Hybrid     =           TRUE
    MP2 Hybrid          =          FALSE

   => Exchange-Correlation Functionals <=

    1.0000   wB97M-V exchange-correlation functional

   => Exact (HF) Exchange <=

    0.8500            HF,LR [omega = 0.3000]
    0.1500               HF 

   => VV10 Non-Local Parameters <=

    VV10 B              =     6.0000E+00
    VV10 C              =     1.0000E-02

   => Molecular Quadrature <=

    Radial Scheme          =       TREUTLER
    Pruning Scheme         =           NONE
    Nuclear Scheme         =       TREUTLER

    BS radius alpha        =              1
    Pruning alpha          =              1
    Radial Points          =             99
    Spherical Points       =            590
    Total Points           =         225778
    Total Blocks           =           1818
    Max Points             =            256
    Max Functions          =            200
    Weights Tolerance      =       1.00E-15

   => Loading Basis Set <=

    Name: (AUG-CC-PVTZ AUX)
    Role: JKFIT
    Keyword: DF_BASIS_SCF
    atoms 1-4 entry S          line   730 file /apps/gb/PSI4/1.4.0/share/psi4/basis/aug-cc-pvtz-jkfit.gbs 

  ==> Pre-Iterations <==

   -------------------------------------------------------
    Irrep   Nso     Nmo     Nalpha   Nbeta   Ndocc  Nsocc
   -------------------------------------------------------
     Ag        66      66       0       0       0       0
     Bg        34      34       0       0       0       0
     Au        34      34       0       0       0       0
     Bu        66      66       0       0       0       0
   -------------------------------------------------------
    Total     200     200      33      33      33       0
   -------------------------------------------------------

  ==> Integral Setup <==

  ==> DiskDFJK: Density-Fitted J/K Matrices <==

    J tasked:                  Yes
    K tasked:                  Yes
    wK tasked:                 Yes
    Omega:               3.000E-01
    OpenMP threads:              1
    Integrals threads:           1
    Memory [MiB]:             8620
    Algorithm:                Core
    Integral Cache:           NONE
    Schwarz Cutoff:          1E-12
    Fitting Condition:       1E-10

   => Auxiliary Basis Set <=

  Basis Set: (AUG-CC-PVTZ AUX)
    Blend: AUG-CC-PVTZ-JKFIT
    Number of shells: 168
    Number of basis function: 584
    Number of Cartesian functions: 720
    Spherical Harmonics?: true
    Max angular momentum: 4

  Cached 100.0% of DFT collocation blocks in 2.757 [GiB].

  Minimum eigenvalue in the overlap matrix is 2.1178000566E-04.
  Using Symmetric Orthogonalization.

  SCF Guess: Superposition of Atomic Densities via on-the-fly atomic UHF.

  ==> Iterations <==

                           Total Energy        Delta E     RMS |[F,P]|

   @DF-UKS iter SAD: -1592.29028721350392   -1.59229e+03   0.00000e+00 
   @DF-UKS iter   1: -1592.58493938040579   -2.94652e-01   5.20779e-03 DIIS
   @DF-UKS iter   2: -1592.70339572229659   -1.18456e-01   3.47481e-03 DIIS
   @DF-UKS iter   3: -1592.76233755679391   -5.89418e-02   3.96918e-04 DIIS
   @DF-UKS iter   4: -1592.76337297280406   -1.03542e-03   1.40600e-04 DIIS
   @DF-UKS iter   5: -1592.76356433520550   -1.91362e-04   6.98582e-05 DIIS
   @DF-UKS iter   6: -1592.76360669898145   -4.23638e-05   1.45889e-05 DIIS
   @DF-UKS iter   7: -1592.76361031698434   -3.61800e-06   3.23140e-06 DIIS
   @DF-UKS iter   8: -1592.76361066428581   -3.47301e-07   1.15155e-06 DIIS
   @DF-UKS iter   9: -1592.76361069872200   -3.44362e-08   4.16162e-07 DIIS
   @DF-UKS iter  10: -1592.76361070410758   -5.38557e-09   1.13459e-07 DIIS
   @DF-UKS iter  11: -1592.76361070448411   -3.76531e-10   2.83446e-08 DIIS
   @DF-UKS iter  12: -1592.76361070451208   -2.79670e-11   7.06280e-09 DIIS
  Energy and wave function converged.


  ==> Post-Iterations <==

   @Spin Contamination Metric:  -4.973799150E-14
   @S^2 Expected:                0.000000000E+00
   @S^2 Observed:               -4.973799150E-14
   @S   Expected:                0.000000000E+00
   @S   Observed:                0.000000000E+00

    Orbital Energies [Eh]
    ---------------------

    Alpha Occupied:                                                       

       1Bu   -88.906043     1Ag   -88.906042     2Bu   -88.850936  
       2Ag   -88.850935     3Ag    -7.816375     3Bu    -7.816312  
       4Ag    -7.763169     4Bu    -7.763168     5Ag    -5.727447  
       5Bu    -5.727253     6Ag    -5.724110     6Bu    -5.724061  
       1Au    -5.717462     1Bg    -5.717454     7Ag    -5.675148  
       7Bu    -5.675148     8Bu    -5.667614     8Ag    -5.667614  
       2Bg    -5.666549     2Au    -5.666549     9Ag    -0.615073  
       9Bu    -0.530702    10Ag    -0.413102    10Bu    -0.337548  
      11Ag    -0.165420    11Bu    -0.144230     3Au    -0.128406  
      12Ag    -0.074980     3Bg    -0.056582    12Bu    -0.014804  
      13Ag     0.014383     4Au     0.027851     4Bg     0.067951  

    Alpha Virtual:                                                        

      13Bu     0.237364    14Ag     0.251509    14Bu     0.256834  
      15Ag     0.288596    16Ag     0.308546     5Au     0.312599  
      15Bu     0.321204     5Bg     0.324342     6Bg     0.328346  
      16Bu     0.340000     6Au     0.348871    17Ag     0.368659  
      17Bu     0.375062    18Ag     0.383987    18Bu     0.388532  
      19Ag     0.404052    19Bu     0.457072    20Ag     0.462102  
      20Bu     0.466560     7Au     0.505566     7Bg     0.521042  
      21Ag     0.546740    21Bu     0.552050    22Bu     0.570651  
       8Bg     0.570693    23Bu     0.575301    22Ag     0.576539  
       8Au     0.580713    23Ag     0.591502     9Au     0.607272  
      24Ag     0.627821    24Bu     0.630998     9Bg     0.635428  
      25Ag     0.653487    10Bg     0.664900    25Bu     0.665696  
      10Au     0.677670    26Bu     0.700987    26Ag     0.724884  
      11Au     0.777519    11Bg     0.839525    27Bu     0.840105  
      27Ag     0.853334    28Ag     0.863969    12Au     0.864346  
      28Bu     0.876085    12Bg     0.882564    29Ag     0.883274  
      29Bu     0.884278    13Au     0.888014    30Ag     0.893128  
      30Bu     0.897392    14Au     0.914146    31Ag     0.939815  
      32Ag     0.945514    13Bg     0.951009    31Bu     0.954357  
      33Ag     0.982110    14Bg     0.983031    15Au     0.992499  
      32Bu     1.002356    33Bu     1.021374    34Ag     1.023010  
      15Bg     1.045246    35Ag     1.060881    16Bg     1.073393  
      16Au     1.091046    34Bu     1.091199    17Au     1.110971  
      17Bg     1.120396    36Ag     1.126428    35Bu     1.127799  
      36Bu     1.143389    37Ag     1.152969    18Bg     1.155335  
      38Ag     1.163943    37Bu     1.175282    18Au     1.233136  
      38Bu     1.259104    39Ag     1.319738    39Bu     1.335462  
      19Au     1.338042    19Bg     1.345326    20Au     1.356343  
      40Ag     1.366504    40Bu     1.381528    20Bg     1.431111  
      41Ag     1.438832    41Bu     1.451756    42Ag     1.485996  
      21Au     1.496806    42Bu     1.499428    21Bg     1.522036  
      22Au     1.543096    43Bu     1.548196    22Bg     1.566450  
      43Ag     1.576830    44Ag     1.611865    44Bu     1.689445  
      45Ag     1.702277    45Bu     1.743538    46Ag     1.838165  
      46Bu     1.869997    23Au     2.156632    47Ag     2.162058  
      23Bg     2.191132    24Bg     2.195609    47Bu     2.197881  
      48Ag     2.207103    48Bu     2.214193    24Au     2.228006  
      49Bu     2.246896    49Ag     2.247219    25Au     2.248017  
      50Bu     2.251759    25Bg     2.281596    26Au     2.332191  
      50Ag     2.342388    51Bu     2.351407    27Au     2.356188  
      26Bg     2.375237    51Ag     2.378811    52Bu     2.388042  
      27Bg     2.394947    28Au     2.396390    52Ag     2.410323  
      28Bg     2.420861    29Au     2.438733    53Ag     2.440408  
      53Bu     2.468208    54Ag     2.504280    30Au     2.505665  
      54Bu     2.519619    55Ag     2.527743    55Bu     2.530918  
      29Bg     2.533763    56Bu     2.568187    31Au     2.577210  
      30Bg     2.610049    31Bg     2.620870    57Bu     2.629402  
      56Ag     2.641294    57Ag     2.670586    58Ag     2.674160  
      32Au     2.677189    33Au     2.689752    32Bg     2.693894  
      58Bu     2.703560    59Bu     2.757358    60Bu     2.786390  
      59Ag     2.788446    60Ag     2.851572    61Bu     2.886704  
      61Ag     2.896855    33Bg     2.910843    34Au     2.935414  
      34Bg     2.958189    62Ag     2.987414    62Bu     3.053625  
      63Ag     3.111150    63Bu     4.009149    64Ag     4.028369  
      64Bu     4.069811    65Ag     5.186210    65Bu     5.623929  
      66Ag     6.018333    66Bu     6.199865  

    Beta Occupied:                                                        

       1Bu   -88.906043     1Ag   -88.906042     2Bu   -88.850936  
       2Ag   -88.850935     3Ag    -7.816375     3Bu    -7.816312  
       4Ag    -7.763169     4Bu    -7.763168     5Ag    -5.727447  
       5Bu    -5.727253     6Ag    -5.724110     6Bu    -5.724061  
       1Au    -5.717462     1Bg    -5.717454     7Ag    -5.675148  
       7Bu    -5.675148     8Bu    -5.667614     8Ag    -5.667614  
       2Bg    -5.666549     2Au    -5.666549     9Ag    -0.615073  
       9Bu    -0.530702    10Ag    -0.413102    10Bu    -0.337548  
      11Ag    -0.165420    11Bu    -0.144230     3Au    -0.128406  
      12Ag    -0.074980     3Bg    -0.056582    12Bu    -0.014804  
      13Ag     0.014383     4Au     0.027851     4Bg     0.067951  

    Beta Virtual:                                                         

      13Bu     0.237364    14Ag     0.251509    14Bu     0.256834  
      15Ag     0.288596    16Ag     0.308546     5Au     0.312599  
      15Bu     0.321204     5Bg     0.324342     6Bg     0.328346  
      16Bu     0.340000     6Au     0.348871    17Ag     0.368659  
      17Bu     0.375062    18Ag     0.383987    18Bu     0.388532  
      19Ag     0.404052    19Bu     0.457072    20Ag     0.462102  
      20Bu     0.466560     7Au     0.505566     7Bg     0.521042  
      21Ag     0.546740    21Bu     0.552050    22Bu     0.570651  
       8Bg     0.570693    23Bu     0.575301    22Ag     0.576539  
       8Au     0.580713    23Ag     0.591502     9Au     0.607272  
      24Ag     0.627821    24Bu     0.630998     9Bg     0.635428  
      25Ag     0.653487    10Bg     0.664900    25Bu     0.665696  
      10Au     0.677670    26Bu     0.700987    26Ag     0.724884  
      11Au     0.777519    11Bg     0.839525    27Bu     0.840105  
      27Ag     0.853334    28Ag     0.863969    12Au     0.864346  
      28Bu     0.876085    12Bg     0.882564    29Ag     0.883274  
      29Bu     0.884278    13Au     0.888014    30Ag     0.893128  
      30Bu     0.897392    14Au     0.914146    31Ag     0.939815  
      32Ag     0.945514    13Bg     0.951009    31Bu     0.954357  
      33Ag     0.982110    14Bg     0.983031    15Au     0.992499  
      32Bu     1.002356    33Bu     1.021374    34Ag     1.023010  
      15Bg     1.045246    35Ag     1.060881    16Bg     1.073393  
      16Au     1.091046    34Bu     1.091199    17Au     1.110971  
      17Bg     1.120396    36Ag     1.126428    35Bu     1.127799  
      36Bu     1.143389    37Ag     1.152969    18Bg     1.155335  
      38Ag     1.163943    37Bu     1.175282    18Au     1.233136  
      38Bu     1.259104    39Ag     1.319738    39Bu     1.335462  
      19Au     1.338042    19Bg     1.345326    20Au     1.356343  
      40Ag     1.366504    40Bu     1.381528    20Bg     1.431111  
      41Ag     1.438832    41Bu     1.451756    42Ag     1.485996  
      21Au     1.496806    42Bu     1.499428    21Bg     1.522036  
      22Au     1.543096    43Bu     1.548196    22Bg     1.566450  
      43Ag     1.576830    44Ag     1.611865    44Bu     1.689445  
      45Ag     1.702277    45Bu     1.743538    46Ag     1.838165  
      46Bu     1.869997    23Au     2.156632    47Ag     2.162058  
      23Bg     2.191132    24Bg     2.195609    47Bu     2.197881  
      48Ag     2.207103    48Bu     2.214193    24Au     2.228006  
      49Bu     2.246896    49Ag     2.247219    25Au     2.248017  
      50Bu     2.251759    25Bg     2.281596    26Au     2.332191  
      50Ag     2.342388    51Bu     2.351407    27Au     2.356188  
      26Bg     2.375237    51Ag     2.378811    52Bu     2.388042  
      27Bg     2.394947    28Au     2.396390    52Ag     2.410323  
      28Bg     2.420861    29Au     2.438733    53Ag     2.440408  
      53Bu     2.468208    54Ag     2.504280    30Au     2.505665  
      54Bu     2.519619    55Ag     2.527743    55Bu     2.530918  
      29Bg     2.533763    56Bu     2.568187    31Au     2.577210  
      30Bg     2.610049    31Bg     2.620870    57Bu     2.629402  
      56Ag     2.641294    57Ag     2.670586    58Ag     2.674160  
      32Au     2.677189    33Au     2.689752    32Bg     2.693894  
      58Bu     2.703560    59Bu     2.757358    60Bu     2.786390  
      59Ag     2.788446    60Ag     2.851572    61Bu     2.886704  
      61Ag     2.896855    33Bg     2.910843    34Au     2.935414  
      34Bg     2.958189    62Ag     2.987414    62Bu     3.053625  
      63Ag     3.111150    63Bu     4.009149    64Ag     4.028369  
      64Bu     4.069811    65Ag     5.186210    65Bu     5.623929  
      66Ag     6.018333    66Bu     6.199865  

    Final Occupation by Irrep:
             Ag    Bg    Au    Bu 
    DOCC [    13,    4,    4,   12 ]
    SOCC [     0,    0,    0,    0 ]

  @DF-UKS Final Energy: -1592.76361070451208

   => Energetics <=

    Nuclear Repulsion Energy =            310.8007252881927798
    One-Electron Energy =               -2842.6571490585356514
    Two-Electron Energy =                1018.2140621525143160
    DFT Exchange-Correlation Energy =     -79.3874008530276285
    Empirical Dispersion Energy =           0.0000000000000000
    VV10 Nonlocal Energy =                  0.2661517663440968
    Total Energy =                      -1592.7636107045123026

  UHF NO Occupations:
  HONO-2 :   12 Ag 2.0000000
  HONO-1 :   12 Bu 2.0000000
  HONO-0 :   13 Ag 2.0000000
  LUNO+0 :   13 Bu 0.0000000
  LUNO+1 :   14 Ag 0.0000000
  LUNO+2 :   15 Ag 0.0000000
  LUNO+3 :   14 Bu 0.0000000


Computation Completed


Properties will be evaluated at   0.000000,   0.000000,   0.000000 [a0]

Properties computed using the SCF density matrix

  Nuclear Dipole Moment: [e a0]
     X:     0.0000      Y:    -0.0000      Z:     0.0000

  Electronic Dipole Moment: [e a0]
     X:     0.0000      Y:     0.0000      Z:     0.0000

  Dipole Moment: [e a0]
     X:     0.0000      Y:    -0.0000      Z:     0.0000     Total:     0.0000

  Dipole Moment: [D]
     X:     0.0000      Y:    -0.0000      Z:     0.0000     Total:     0.0000


*** tstop() called on b1-21.compute.lan at Thu Feb 11 14:06:34 2021
Module time:
	user time   =     404.71 seconds =       6.75 minutes
	system time =       0.85 seconds =       0.01 minutes
	total time  =        406 seconds =       6.77 minutes
Total time:
	user time   =     404.71 seconds =       6.75 minutes
	system time =       0.85 seconds =       0.01 minutes
	total time  =        406 seconds =       6.77 minutes

  //>>>>>>>>>>>>>>>>>>>>>>>>>>>>>>>>>>>//
  //    Loading displacement 2 of 7    //
  //<<<<<<<<<<<<<<<<<<<<<<<<<<<<<<<<<<<//

*** tstart() called on b1-21.compute.lan
*** at Thu Feb 11 14:06:34 2021

   => Loading Basis Set <=

    Name: AUG-CC-PVTZ
    Role: ORBITAL
    Keyword: BASIS
    atoms 1-4 entry S          line   906 file /apps/gb/PSI4/1.4.0/share/psi4/basis/aug-cc-pvtz.gbs 


         ---------------------------------------------------------
                                   SCF
               by Justin Turney, Rob Parrish, Andy Simmonett
                          and Daniel G. A. Smith
                              UKS Reference
                        1 Threads,  15258 MiB Core
         ---------------------------------------------------------

  ==> Geometry <==

    Molecular point group: c2h
    Full point group: C2h

    Geometry (in Angstrom), charge = -2, multiplicity = 1:

       Center              X                  Y                   Z               Mass       
    ------------   -----------------  -----------------  -----------------  -----------------
         S           -0.000306053994     1.025500000000     0.000000000000    31.972071174400
         S            0.000306053994    -1.025500000000     0.000000000000    31.972071174400
         S           -1.954038374509     1.552859576763     0.000000000000    31.972071174400
         S            1.954038374509    -1.552859576763     0.000000000000    31.972071174400

  Running in c2h symmetry.

  Rotational constants: A =      0.43881  B =      0.03946  C =      0.03621 [cm^-1]
  Rotational constants: A =  13155.09179  B =   1183.06200  C =   1085.44583 [MHz]
  Nuclear repulsion =  310.817974238186707

  Charge       = -2
  Multiplicity = 1
  Electrons    = 66
  Nalpha       = 33
  Nbeta        = 33

  ==> Algorithm <==

  SCF Algorithm Type is DF.
  DIIS enabled.
  MOM disabled.
  Fractional occupation disabled.
  Guess Type is SAD.
  Energy threshold   = 1.00e-08
  Density threshold  = 1.00e-08
  Integral threshold = 0.00e+00

  ==> Primary Basis <==

  Basis Set: AUG-CC-PVTZ
    Blend: AUG-CC-PVTZ
    Number of shells: 64
    Number of basis function: 200
    Number of Cartesian functions: 236
    Spherical Harmonics?: true
    Max angular momentum: 3

  ==> DFT Potential <==

   => Composite Functional: WB97M-V <= 

    wB97M-V Hyb-GGA Exchange-Correlation Functional

    N. Mardirossian and M. Head-Gordon, J. Chem. Phys. 144, 214110 (2016)

    Deriv               =              1
    GGA                 =           TRUE
    Meta                =           TRUE

    Exchange Hybrid     =           TRUE
    MP2 Hybrid          =          FALSE

   => Exchange-Correlation Functionals <=

    1.0000   wB97M-V exchange-correlation functional

   => Exact (HF) Exchange <=

    0.8500            HF,LR [omega = 0.3000]
    0.1500               HF 

   => VV10 Non-Local Parameters <=

    VV10 B              =     6.0000E+00
    VV10 C              =     1.0000E-02

   => Molecular Quadrature <=

    Radial Scheme          =       TREUTLER
    Pruning Scheme         =           NONE
    Nuclear Scheme         =       TREUTLER

    BS radius alpha        =              1
    Pruning alpha          =              1
    Radial Points          =             99
    Spherical Points       =            590
    Total Points           =         225774
    Total Blocks           =           1832
    Max Points             =            256
    Max Functions          =            200
    Weights Tolerance      =       1.00E-15

   => Loading Basis Set <=

    Name: (AUG-CC-PVTZ AUX)
    Role: JKFIT
    Keyword: DF_BASIS_SCF
    atoms 1-4 entry S          line   730 file /apps/gb/PSI4/1.4.0/share/psi4/basis/aug-cc-pvtz-jkfit.gbs 

  ==> Pre-Iterations <==

   -------------------------------------------------------
    Irrep   Nso     Nmo     Nalpha   Nbeta   Ndocc  Nsocc
   -------------------------------------------------------
     Ag        66      66       0       0       0       0
     Bg        34      34       0       0       0       0
     Au        34      34       0       0       0       0
     Bu        66      66       0       0       0       0
   -------------------------------------------------------
    Total     200     200      33      33      33       0
   -------------------------------------------------------

  ==> Integral Setup <==

  ==> DiskDFJK: Density-Fitted J/K Matrices <==

    J tasked:                  Yes
    K tasked:                  Yes
    wK tasked:                 Yes
    Omega:               3.000E-01
    OpenMP threads:              1
    Integrals threads:           1
    Memory [MiB]:             8621
    Algorithm:                Core
    Integral Cache:           NONE
    Schwarz Cutoff:          1E-12
    Fitting Condition:       1E-10

   => Auxiliary Basis Set <=

  Basis Set: (AUG-CC-PVTZ AUX)
    Blend: AUG-CC-PVTZ-JKFIT
    Number of shells: 168
    Number of basis function: 584
    Number of Cartesian functions: 720
    Spherical Harmonics?: true
    Max angular momentum: 4

  Cached 100.0% of DFT collocation blocks in 2.756 [GiB].

  Minimum eigenvalue in the overlap matrix is 2.1164782806E-04.
  Using Symmetric Orthogonalization.

  SCF Guess: Superposition of Atomic Densities via on-the-fly atomic UHF.

  ==> Iterations <==

                           Total Energy        Delta E     RMS |[F,P]|

   @DF-UKS iter SAD: -1592.29108075211752   -1.59229e+03   0.00000e+00 
   @DF-UKS iter   1: -1592.58490422173600   -2.93823e-01   5.20782e-03 DIIS
   @DF-UKS iter   2: -1592.70337765514068   -1.18473e-01   3.47459e-03 DIIS
   @DF-UKS iter   3: -1592.76230688897613   -5.89292e-02   3.96755e-04 DIIS
   @DF-UKS iter   4: -1592.76334189582394   -1.03501e-03   1.40531e-04 DIIS
   @DF-UKS iter   5: -1592.76353315813662   -1.91262e-04   6.98327e-05 DIIS
   @DF-UKS iter   6: -1592.76357547737689   -4.23192e-05   1.45961e-05 DIIS
   @DF-UKS iter   7: -1592.76357909600119   -3.61862e-06   3.23149e-06 DIIS
   @DF-UKS iter   8: -1592.76357944321148   -3.47210e-07   1.15167e-06 DIIS
   @DF-UKS iter   9: -1592.76357947765246   -3.44410e-08   4.16134e-07 DIIS
   @DF-UKS iter  10: -1592.76357948303848   -5.38603e-09   1.13458e-07 DIIS
   @DF-UKS iter  11: -1592.76357948341661   -3.78122e-10   2.83402e-08 DIIS
   @DF-UKS iter  12: -1592.76357948344457   -2.79670e-11   7.06294e-09 DIIS
  Energy and wave function converged.


  ==> Post-Iterations <==

   @Spin Contamination Metric:  -4.263256415E-14
   @S^2 Expected:                0.000000000E+00
   @S^2 Observed:               -4.263256415E-14
   @S   Expected:                0.000000000E+00
   @S   Observed:                0.000000000E+00

    Orbital Energies [Eh]
    ---------------------

    Alpha Occupied:                                                       

       1Bu   -88.906013     1Ag   -88.906012     2Bu   -88.850929  
       2Ag   -88.850928     3Ag    -7.816351     3Bu    -7.816287  
       4Ag    -7.763169     4Bu    -7.763167     5Ag    -5.727423  
       5Bu    -5.727228     6Ag    -5.724085     6Bu    -5.724035  
       1Au    -5.717438     1Bg    -5.717429     7Ag    -5.675146  
       7Bu    -5.675145     8Bu    -5.667614     8Ag    -5.667614  
       2Bg    -5.666548     2Au    -5.666548     9Ag    -0.615105  
       9Bu    -0.530790    10Ag    -0.413117    10Bu    -0.337499  
      11Ag    -0.165446    11Bu    -0.144239     3Au    -0.128421  
      12Ag    -0.074996     3Bg    -0.056625    12Bu    -0.014832  
      13Ag     0.014405     4Au     0.027863     4Bg     0.067996  

    Alpha Virtual:                                                        

      13Bu     0.237362    14Ag     0.251507    14Bu     0.256844  
      15Ag     0.288602    16Ag     0.308544     5Au     0.312595  
      15Bu     0.321199     5Bg     0.324342     6Bg     0.328350  
      16Bu     0.340000     6Au     0.348874    17Ag     0.368666  
      17Bu     0.375089    18Ag     0.383989    18Bu     0.388574  
      19Ag     0.404115    19Bu     0.457064    20Ag     0.462126  
      20Bu     0.466573     7Au     0.505564     7Bg     0.521039  
      21Ag     0.546752    21Bu     0.552035    22Bu     0.570690  
       8Bg     0.570696    23Bu     0.575296    22Ag     0.576536  
       8Au     0.580747    23Ag     0.591514     9Au     0.607253  
      24Ag     0.627810    24Bu     0.630990     9Bg     0.635435  
      25Ag     0.653517    10Bg     0.664909    25Bu     0.665725  
      10Au     0.677662    26Bu     0.701015    26Ag     0.724892  
      11Au     0.777522    11Bg     0.839502    27Bu     0.840085  
      27Ag     0.853332    28Ag     0.863935    12Au     0.864348  
      28Bu     0.876110    12Bg     0.882576    29Ag     0.883261  
      29Bu     0.884267    13Au     0.888025    30Ag     0.893125  
      30Bu     0.897386    14Au     0.914148    31Ag     0.939825  
      32Ag     0.945505    13Bg     0.951006    31Bu     0.954313  
      33Ag     0.982097    14Bg     0.983014    15Au     0.992488  
      32Bu     1.002339    33Bu     1.021455    34Ag     1.023022  
      15Bg     1.045250    35Ag     1.060942    16Bg     1.073450  
      16Au     1.091101    34Bu     1.091232    17Au     1.110976  
      17Bg     1.120429    36Ag     1.126486    35Bu     1.127802  
      36Bu     1.143424    37Ag     1.153024    18Bg     1.155357  
      38Ag     1.163983    37Bu     1.175315    18Au     1.233129  
      38Bu     1.259202    39Ag     1.319792    39Bu     1.335539  
      19Au     1.338059    19Bg     1.345411    20Au     1.356406  
      40Ag     1.366545    40Bu     1.381548    20Bg     1.431077  
      41Ag     1.438933    41Bu     1.451720    42Ag     1.486052  
      21Au     1.496910    42Bu     1.499535    21Bg     1.522072  
      22Au     1.543129    43Bu     1.548236    22Bg     1.566516  
      43Ag     1.576879    44Ag     1.611960    44Bu     1.689563  
      45Ag     1.702322    45Bu     1.743575    46Ag     1.838227  
      46Bu     1.869987    23Au     2.156647    47Ag     2.162026  
      23Bg     2.191123    24Bg     2.195609    47Bu     2.197834  
      48Ag     2.207090    48Bu     2.214201    24Au     2.228050  
      49Bu     2.246949    49Ag     2.247140    25Au     2.247954  
      50Bu     2.251839    25Bg     2.281639    26Au     2.332216  
      50Ag     2.342331    51Bu     2.351292    27Au     2.356214  
      26Bg     2.375229    51Ag     2.378830    52Bu     2.388012  
      27Bg     2.394913    28Au     2.396330    52Ag     2.410305  
      28Bg     2.420840    29Au     2.438734    53Ag     2.440405  
      53Bu     2.468183    54Ag     2.504271    30Au     2.505663  
      54Bu     2.519608    55Ag     2.527747    55Bu     2.530867  
      29Bg     2.533749    56Bu     2.568206    31Au     2.577160  
      30Bg     2.610123    31Bg     2.620943    57Bu     2.629459  
      56Ag     2.641395    57Ag     2.670637    58Ag     2.674199  
      32Au     2.677281    33Au     2.689880    32Bg     2.694029  
      58Bu     2.703695    59Bu     2.757466    60Bu     2.786510  
      59Ag     2.788501    60Ag     2.851661    61Bu     2.887218  
      61Ag     2.897290    33Bg     2.910863    34Au     2.935689  
      34Bg     2.958410    62Ag     2.987774    62Bu     3.053748  
      63Ag     3.110972    63Bu     4.009275    64Ag     4.028664  
      64Bu     4.070132    65Ag     5.187207    65Bu     5.624030  
      66Ag     6.018559    66Bu     6.199745  

    Beta Occupied:                                                        

       1Bu   -88.906013     1Ag   -88.906012     2Bu   -88.850929  
       2Ag   -88.850928     3Ag    -7.816351     3Bu    -7.816287  
       4Ag    -7.763169     4Bu    -7.763167     5Ag    -5.727423  
       5Bu    -5.727228     6Ag    -5.724085     6Bu    -5.724035  
       1Au    -5.717438     1Bg    -5.717429     7Ag    -5.675146  
       7Bu    -5.675145     8Bu    -5.667614     8Ag    -5.667614  
       2Bg    -5.666548     2Au    -5.666548     9Ag    -0.615105  
       9Bu    -0.530790    10Ag    -0.413117    10Bu    -0.337499  
      11Ag    -0.165446    11Bu    -0.144239     3Au    -0.128421  
      12Ag    -0.074996     3Bg    -0.056625    12Bu    -0.014832  
      13Ag     0.014405     4Au     0.027863     4Bg     0.067996  

    Beta Virtual:                                                         

      13Bu     0.237362    14Ag     0.251507    14Bu     0.256844  
      15Ag     0.288602    16Ag     0.308544     5Au     0.312595  
      15Bu     0.321199     5Bg     0.324342     6Bg     0.328350  
      16Bu     0.340000     6Au     0.348874    17Ag     0.368666  
      17Bu     0.375089    18Ag     0.383989    18Bu     0.388574  
      19Ag     0.404115    19Bu     0.457064    20Ag     0.462126  
      20Bu     0.466573     7Au     0.505564     7Bg     0.521039  
      21Ag     0.546752    21Bu     0.552035    22Bu     0.570690  
       8Bg     0.570696    23Bu     0.575296    22Ag     0.576536  
       8Au     0.580747    23Ag     0.591514     9Au     0.607253  
      24Ag     0.627810    24Bu     0.630990     9Bg     0.635435  
      25Ag     0.653517    10Bg     0.664909    25Bu     0.665725  
      10Au     0.677662    26Bu     0.701015    26Ag     0.724892  
      11Au     0.777522    11Bg     0.839502    27Bu     0.840085  
      27Ag     0.853332    28Ag     0.863935    12Au     0.864348  
      28Bu     0.876110    12Bg     0.882576    29Ag     0.883261  
      29Bu     0.884267    13Au     0.888025    30Ag     0.893125  
      30Bu     0.897386    14Au     0.914148    31Ag     0.939825  
      32Ag     0.945505    13Bg     0.951006    31Bu     0.954313  
      33Ag     0.982097    14Bg     0.983014    15Au     0.992488  
      32Bu     1.002339    33Bu     1.021455    34Ag     1.023022  
      15Bg     1.045250    35Ag     1.060942    16Bg     1.073450  
      16Au     1.091101    34Bu     1.091232    17Au     1.110976  
      17Bg     1.120429    36Ag     1.126486    35Bu     1.127802  
      36Bu     1.143424    37Ag     1.153024    18Bg     1.155357  
      38Ag     1.163983    37Bu     1.175315    18Au     1.233129  
      38Bu     1.259202    39Ag     1.319792    39Bu     1.335539  
      19Au     1.338059    19Bg     1.345411    20Au     1.356406  
      40Ag     1.366545    40Bu     1.381548    20Bg     1.431077  
      41Ag     1.438933    41Bu     1.451720    42Ag     1.486052  
      21Au     1.496910    42Bu     1.499535    21Bg     1.522072  
      22Au     1.543129    43Bu     1.548236    22Bg     1.566516  
      43Ag     1.576879    44Ag     1.611960    44Bu     1.689563  
      45Ag     1.702322    45Bu     1.743575    46Ag     1.838227  
      46Bu     1.869987    23Au     2.156647    47Ag     2.162026  
      23Bg     2.191123    24Bg     2.195609    47Bu     2.197834  
      48Ag     2.207090    48Bu     2.214201    24Au     2.228050  
      49Bu     2.246949    49Ag     2.247140    25Au     2.247954  
      50Bu     2.251839    25Bg     2.281639    26Au     2.332216  
      50Ag     2.342331    51Bu     2.351292    27Au     2.356214  
      26Bg     2.375229    51Ag     2.378830    52Bu     2.388012  
      27Bg     2.394913    28Au     2.396330    52Ag     2.410305  
      28Bg     2.420840    29Au     2.438734    53Ag     2.440405  
      53Bu     2.468183    54Ag     2.504271    30Au     2.505663  
      54Bu     2.519608    55Ag     2.527747    55Bu     2.530867  
      29Bg     2.533749    56Bu     2.568206    31Au     2.577160  
      30Bg     2.610123    31Bg     2.620943    57Bu     2.629459  
      56Ag     2.641395    57Ag     2.670637    58Ag     2.674199  
      32Au     2.677281    33Au     2.689880    32Bg     2.694029  
      58Bu     2.703695    59Bu     2.757466    60Bu     2.786510  
      59Ag     2.788501    60Ag     2.851661    61Bu     2.887218  
      61Ag     2.897290    33Bg     2.910863    34Au     2.935689  
      34Bg     2.958410    62Ag     2.987774    62Bu     3.053748  
      63Ag     3.110972    63Bu     4.009275    64Ag     4.028664  
      64Bu     4.070132    65Ag     5.187207    65Bu     5.624030  
      66Ag     6.018559    66Bu     6.199745  

    Final Occupation by Irrep:
             Ag    Bg    Au    Bu 
    DOCC [    13,    4,    4,   12 ]
    SOCC [     0,    0,    0,    0 ]

  @DF-UKS Final Energy: -1592.76357948344457

   => Energetics <=

    Nuclear Repulsion Energy =            310.8179742381867072
    One-Electron Energy =               -2842.6917558508353068
    Two-Electron Energy =                1018.2316313633849632
    DFT Exchange-Correlation Energy =     -79.3875807405432994
    Empirical Dispersion Energy =           0.0000000000000000
    VV10 Nonlocal Energy =                  0.2661515063624519
    Total Energy =                      -1592.7635794834445733

  UHF NO Occupations:
  HONO-2 :   11 Ag 2.0000000
  HONO-1 :   12 Ag 2.0000000
  HONO-0 :   13 Ag 2.0000000
  LUNO+0 :   13 Bu 0.0000000
  LUNO+1 :    5 Bg 0.0000000
  LUNO+2 :   14 Ag 0.0000000
  LUNO+3 :   14 Bu 0.0000000


Computation Completed


Properties will be evaluated at   0.000000,   0.000000,   0.000000 [a0]

Properties computed using the SCF density matrix

  Nuclear Dipole Moment: [e a0]
     X:     0.0000      Y:    -0.0000      Z:     0.0000

  Electronic Dipole Moment: [e a0]
     X:     0.0000      Y:     0.0000      Z:     0.0000

  Dipole Moment: [e a0]
     X:     0.0000      Y:    -0.0000      Z:     0.0000     Total:     0.0000

  Dipole Moment: [D]
     X:     0.0000      Y:    -0.0000      Z:     0.0000     Total:     0.0000


*** tstop() called on b1-21.compute.lan at Thu Feb 11 14:13:04 2021
Module time:
	user time   =     389.52 seconds =       6.49 minutes
	system time =       0.16 seconds =       0.00 minutes
	total time  =        390 seconds =       6.50 minutes
Total time:
	user time   =     794.24 seconds =      13.24 minutes
	system time =       1.01 seconds =       0.02 minutes
	total time  =        796 seconds =      13.27 minutes

  //>>>>>>>>>>>>>>>>>>>>>>>>>>>>>>>>>>>//
  //    Loading displacement 3 of 7    //
  //<<<<<<<<<<<<<<<<<<<<<<<<<<<<<<<<<<<//

*** tstart() called on b1-21.compute.lan
*** at Thu Feb 11 14:13:04 2021

   => Loading Basis Set <=

    Name: AUG-CC-PVTZ
    Role: ORBITAL
    Keyword: BASIS
    atoms 1-4 entry S          line   906 file /apps/gb/PSI4/1.4.0/share/psi4/basis/aug-cc-pvtz.gbs 


         ---------------------------------------------------------
                                   SCF
               by Justin Turney, Rob Parrish, Andy Simmonett
                          and Daniel G. A. Smith
                              UKS Reference
                        1 Threads,  15258 MiB Core
         ---------------------------------------------------------

  ==> Geometry <==

    Molecular point group: c2h
    Full point group: C2h

    Geometry (in Angstrom), charge = -2, multiplicity = 1:

       Center              X                  Y                   Z               Mass       
    ------------   -----------------  -----------------  -----------------  -----------------
         S            0.000306053994     1.025500000000     0.000000000000    31.972071174400
         S           -0.000306053994    -1.025500000000     0.000000000000    31.972071174400
         S           -1.954194835290     1.552662674223     0.000000000000    31.972071174400
         S            1.954194835290    -1.552662674223     0.000000000000    31.972071174400

  Running in c2h symmetry.

  Rotational constants: A =      0.43827  B =      0.03947  C =      0.03621 [cm^-1]
  Rotational constants: A =  13139.07388  B =   1183.19172  C =   1085.44583 [MHz]
  Nuclear repulsion =  310.783477564992893

  Charge       = -2
  Multiplicity = 1
  Electrons    = 66
  Nalpha       = 33
  Nbeta        = 33

  ==> Algorithm <==

  SCF Algorithm Type is DF.
  DIIS enabled.
  MOM disabled.
  Fractional occupation disabled.
  Guess Type is SAD.
  Energy threshold   = 1.00e-08
  Density threshold  = 1.00e-08
  Integral threshold = 0.00e+00

  ==> Primary Basis <==

  Basis Set: AUG-CC-PVTZ
    Blend: AUG-CC-PVTZ
    Number of shells: 64
    Number of basis function: 200
    Number of Cartesian functions: 236
    Spherical Harmonics?: true
    Max angular momentum: 3

  ==> DFT Potential <==

   => Composite Functional: WB97M-V <= 

    wB97M-V Hyb-GGA Exchange-Correlation Functional

    N. Mardirossian and M. Head-Gordon, J. Chem. Phys. 144, 214110 (2016)

    Deriv               =              1
    GGA                 =           TRUE
    Meta                =           TRUE

    Exchange Hybrid     =           TRUE
    MP2 Hybrid          =          FALSE

   => Exchange-Correlation Functionals <=

    1.0000   wB97M-V exchange-correlation functional

   => Exact (HF) Exchange <=

    0.8500            HF,LR [omega = 0.3000]
    0.1500               HF 

   => VV10 Non-Local Parameters <=

    VV10 B              =     6.0000E+00
    VV10 C              =     1.0000E-02

   => Molecular Quadrature <=

    Radial Scheme          =       TREUTLER
    Pruning Scheme         =           NONE
    Nuclear Scheme         =       TREUTLER

    BS radius alpha        =              1
    Pruning alpha          =              1
    Radial Points          =             99
    Spherical Points       =            590
    Total Points           =         225770
    Total Blocks           =           1854
    Max Points             =            254
    Max Functions          =            200
    Weights Tolerance      =       1.00E-15

   => Loading Basis Set <=

    Name: (AUG-CC-PVTZ AUX)
    Role: JKFIT
    Keyword: DF_BASIS_SCF
    atoms 1-4 entry S          line   730 file /apps/gb/PSI4/1.4.0/share/psi4/basis/aug-cc-pvtz-jkfit.gbs 

  ==> Pre-Iterations <==

   -------------------------------------------------------
    Irrep   Nso     Nmo     Nalpha   Nbeta   Ndocc  Nsocc
   -------------------------------------------------------
     Ag        66      66       0       0       0       0
     Bg        34      34       0       0       0       0
     Au        34      34       0       0       0       0
     Bu        66      66       0       0       0       0
   -------------------------------------------------------
    Total     200     200      33      33      33       0
   -------------------------------------------------------

  ==> Integral Setup <==

  ==> DiskDFJK: Density-Fitted J/K Matrices <==

    J tasked:                  Yes
    K tasked:                  Yes
    wK tasked:                 Yes
    Omega:               3.000E-01
    OpenMP threads:              1
    Integrals threads:           1
    Memory [MiB]:             8620
    Algorithm:                Core
    Integral Cache:           NONE
    Schwarz Cutoff:          1E-12
    Fitting Condition:       1E-10

   => Auxiliary Basis Set <=

  Basis Set: (AUG-CC-PVTZ AUX)
    Blend: AUG-CC-PVTZ-JKFIT
    Number of shells: 168
    Number of basis function: 584
    Number of Cartesian functions: 720
    Spherical Harmonics?: true
    Max angular momentum: 4

  Cached 100.0% of DFT collocation blocks in 2.757 [GiB].

  Minimum eigenvalue in the overlap matrix is 2.1191209487E-04.
  Using Symmetric Orthogonalization.

  SCF Guess: Superposition of Atomic Densities via on-the-fly atomic UHF.

  ==> Iterations <==

                           Total Energy        Delta E     RMS |[F,P]|

   @DF-UKS iter SAD: -1592.28949399437761   -1.59229e+03   0.00000e+00 
   @DF-UKS iter   1: -1592.58497428936107   -2.95480e-01   5.20777e-03 DIIS
   @DF-UKS iter   2: -1592.70341353262938   -1.18439e-01   3.47504e-03 DIIS
   @DF-UKS iter   3: -1592.76236801216260   -5.89545e-02   3.97082e-04 DIIS
   @DF-UKS iter   4: -1592.76340383854063   -1.03583e-03   1.40669e-04 DIIS
   @DF-UKS iter   5: -1592.76359530113268   -1.91463e-04   6.98834e-05 DIIS
   @DF-UKS iter   6: -1592.76363770918533   -4.24081e-05   1.45818e-05 DIIS
   @DF-UKS iter   7: -1592.76364132658523   -3.61740e-06   3.23130e-06 DIIS
   @DF-UKS iter   8: -1592.76364167398197   -3.47397e-07   1.15143e-06 DIIS
   @DF-UKS iter   9: -1592.76364170841498   -3.44330e-08   4.16191e-07 DIIS
   @DF-UKS iter  10: -1592.76364171379669   -5.38171e-09   1.13460e-07 DIIS
   @DF-UKS iter  11: -1592.76364171417390   -3.77213e-10   2.83490e-08 DIIS
   @DF-UKS iter  12: -1592.76364171420073   -2.68301e-11   7.06271e-09 DIIS
  Energy and wave function converged.


  ==> Post-Iterations <==

   @Spin Contamination Metric:  -8.526512829E-14
   @S^2 Expected:                0.000000000E+00
   @S^2 Observed:               -8.526512829E-14
   @S   Expected:                0.000000000E+00
   @S   Observed:                0.000000000E+00

    Orbital Energies [Eh]
    ---------------------

    Alpha Occupied:                                                       

       1Bu   -88.906073     1Ag   -88.906072     2Bu   -88.850942  
       2Ag   -88.850941     3Ag    -7.816400     3Bu    -7.816336  
       4Ag    -7.763170     4Bu    -7.763168     5Ag    -5.727472  
       5Bu    -5.727278     6Ag    -5.724136     6Bu    -5.724087  
       1Au    -5.717487     1Bg    -5.717478     7Ag    -5.675150  
       7Bu    -5.675150     8Bu    -5.667614     8Ag    -5.667614  
       2Bg    -5.666550     2Au    -5.666550     9Ag    -0.615041  
       9Bu    -0.530614    10Ag    -0.413088    10Bu    -0.337598  
      11Ag    -0.165394    11Bu    -0.144222     3Au    -0.128392  
      12Ag    -0.074964     3Bg    -0.056539    12Bu    -0.014776  
      13Ag     0.014361     4Au     0.027839     4Bg     0.067905  

    Alpha Virtual:                                                        

      13Bu     0.237366    14Ag     0.251511    14Bu     0.256823  
      15Ag     0.288590    16Ag     0.308548     5Au     0.312603  
      15Bu     0.321210     5Bg     0.324341     6Bg     0.328343  
      16Bu     0.340001     6Au     0.348869    17Ag     0.368651  
      17Bu     0.375034    18Ag     0.383984    18Bu     0.388489  
      19Ag     0.403989    19Bu     0.457080    20Ag     0.462079  
      20Bu     0.466547     7Au     0.505569     7Bg     0.521045  
      21Ag     0.546727    21Bu     0.552064    22Bu     0.570611  
       8Bg     0.570690    23Bu     0.575307    22Ag     0.576541  
       8Au     0.580680    23Ag     0.591490     9Au     0.607292  
      24Ag     0.627831    24Bu     0.631007     9Bg     0.635422  
      25Ag     0.653456    10Bg     0.664892    25Bu     0.665668  
      10Au     0.677677    26Bu     0.700958    26Ag     0.724876  
      11Au     0.777517    11Bg     0.839547    27Bu     0.840125  
      27Ag     0.853336    28Ag     0.864002    12Au     0.864345  
      28Bu     0.876059    12Bg     0.882551    29Ag     0.883287  
      29Bu     0.884288    13Au     0.888004    30Ag     0.893130  
      30Bu     0.897397    14Au     0.914143    31Ag     0.939806  
      32Ag     0.945524    13Bg     0.951013    31Bu     0.954400  
      33Ag     0.982122    14Bg     0.983048    15Au     0.992510  
      32Bu     1.002373    33Bu     1.021292    34Ag     1.022998  
      15Bg     1.045242    35Ag     1.060819    16Bg     1.073335  
      16Au     1.090992    34Bu     1.091166    17Au     1.110966  
      17Bg     1.120362    36Ag     1.126369    35Bu     1.127796  
      36Bu     1.143354    37Ag     1.152915    18Bg     1.155314  
      38Ag     1.163903    37Bu     1.175250    18Au     1.233142  
      38Bu     1.259006    39Ag     1.319684    39Bu     1.335384  
      19Au     1.338025    19Bg     1.345240    20Au     1.356281  
      40Ag     1.366462    40Bu     1.381507    20Bg     1.431144  
      41Ag     1.438731    41Bu     1.451792    42Ag     1.485941  
      21Au     1.496702    42Bu     1.499320    21Bg     1.522000  
      22Au     1.543063    43Bu     1.548155    22Bg     1.566384  
      43Ag     1.576782    44Ag     1.611771    44Bu     1.689327  
      45Ag     1.702233    45Bu     1.743500    46Ag     1.838103  
      46Bu     1.870007    23Au     2.156617    47Ag     2.162090  
      23Bg     2.191141    24Bg     2.195608    47Bu     2.197928  
      48Ag     2.207115    48Bu     2.214184    24Au     2.227962  
      49Bu     2.246839    49Ag     2.247299    25Au     2.248078  
      50Bu     2.251685    25Bg     2.281553    26Au     2.332167  
      50Ag     2.342445    51Bu     2.351522    27Au     2.356161  
      26Bg     2.375244    51Ag     2.378793    52Bu     2.388073  
      27Bg     2.394981    28Au     2.396450    52Ag     2.410340  
      28Bg     2.420882    29Au     2.438731    53Ag     2.440412  
      53Bu     2.468233    54Ag     2.504290    30Au     2.505666  
      54Bu     2.519629    55Ag     2.527740    55Bu     2.530968  
      29Bg     2.533776    56Bu     2.568167    31Au     2.577261  
      30Bg     2.609975    31Bg     2.620799    57Bu     2.629344  
      56Ag     2.641193    57Ag     2.670535    58Ag     2.674121  
      32Au     2.677097    33Au     2.689624    32Bg     2.693759  
      58Bu     2.703426    59Bu     2.757250    60Bu     2.786271  
      59Ag     2.788390    60Ag     2.851482    61Bu     2.886191  
      61Ag     2.896420    33Bg     2.910823    34Au     2.935139  
      34Bg     2.957968    62Ag     2.987055    62Bu     3.053502  
      63Ag     3.111327    63Bu     4.009023    64Ag     4.028072  
      64Bu     4.069489    65Ag     5.185213    65Bu     5.623829  
      66Ag     6.018108    66Bu     6.199986  

    Beta Occupied:                                                        

       1Bu   -88.906073     1Ag   -88.906072     2Bu   -88.850942  
       2Ag   -88.850941     3Ag    -7.816400     3Bu    -7.816336  
       4Ag    -7.763170     4Bu    -7.763168     5Ag    -5.727472  
       5Bu    -5.727278     6Ag    -5.724136     6Bu    -5.724087  
       1Au    -5.717487     1Bg    -5.717478     7Ag    -5.675150  
       7Bu    -5.675150     8Bu    -5.667614     8Ag    -5.667614  
       2Bg    -5.666550     2Au    -5.666550     9Ag    -0.615041  
       9Bu    -0.530614    10Ag    -0.413088    10Bu    -0.337598  
      11Ag    -0.165394    11Bu    -0.144222     3Au    -0.128392  
      12Ag    -0.074964     3Bg    -0.056539    12Bu    -0.014776  
      13Ag     0.014361     4Au     0.027839     4Bg     0.067905  

    Beta Virtual:                                                         

      13Bu     0.237366    14Ag     0.251511    14Bu     0.256823  
      15Ag     0.288590    16Ag     0.308548     5Au     0.312603  
      15Bu     0.321210     5Bg     0.324341     6Bg     0.328343  
      16Bu     0.340001     6Au     0.348869    17Ag     0.368651  
      17Bu     0.375034    18Ag     0.383984    18Bu     0.388489  
      19Ag     0.403989    19Bu     0.457080    20Ag     0.462079  
      20Bu     0.466547     7Au     0.505569     7Bg     0.521045  
      21Ag     0.546727    21Bu     0.552064    22Bu     0.570611  
       8Bg     0.570690    23Bu     0.575307    22Ag     0.576541  
       8Au     0.580680    23Ag     0.591490     9Au     0.607292  
      24Ag     0.627831    24Bu     0.631007     9Bg     0.635422  
      25Ag     0.653456    10Bg     0.664892    25Bu     0.665668  
      10Au     0.677677    26Bu     0.700958    26Ag     0.724876  
      11Au     0.777517    11Bg     0.839547    27Bu     0.840125  
      27Ag     0.853336    28Ag     0.864002    12Au     0.864345  
      28Bu     0.876059    12Bg     0.882551    29Ag     0.883287  
      29Bu     0.884288    13Au     0.888004    30Ag     0.893130  
      30Bu     0.897397    14Au     0.914143    31Ag     0.939806  
      32Ag     0.945524    13Bg     0.951013    31Bu     0.954400  
      33Ag     0.982122    14Bg     0.983048    15Au     0.992510  
      32Bu     1.002373    33Bu     1.021292    34Ag     1.022998  
      15Bg     1.045242    35Ag     1.060819    16Bg     1.073335  
      16Au     1.090992    34Bu     1.091166    17Au     1.110966  
      17Bg     1.120362    36Ag     1.126369    35Bu     1.127796  
      36Bu     1.143354    37Ag     1.152915    18Bg     1.155314  
      38Ag     1.163903    37Bu     1.175250    18Au     1.233142  
      38Bu     1.259006    39Ag     1.319684    39Bu     1.335384  
      19Au     1.338025    19Bg     1.345240    20Au     1.356281  
      40Ag     1.366462    40Bu     1.381507    20Bg     1.431144  
      41Ag     1.438731    41Bu     1.451792    42Ag     1.485941  
      21Au     1.496702    42Bu     1.499320    21Bg     1.522000  
      22Au     1.543063    43Bu     1.548155    22Bg     1.566384  
      43Ag     1.576782    44Ag     1.611771    44Bu     1.689327  
      45Ag     1.702233    45Bu     1.743500    46Ag     1.838103  
      46Bu     1.870007    23Au     2.156617    47Ag     2.162090  
      23Bg     2.191141    24Bg     2.195608    47Bu     2.197928  
      48Ag     2.207115    48Bu     2.214184    24Au     2.227962  
      49Bu     2.246839    49Ag     2.247299    25Au     2.248078  
      50Bu     2.251685    25Bg     2.281553    26Au     2.332167  
      50Ag     2.342445    51Bu     2.351522    27Au     2.356161  
      26Bg     2.375244    51Ag     2.378793    52Bu     2.388073  
      27Bg     2.394981    28Au     2.396450    52Ag     2.410340  
      28Bg     2.420882    29Au     2.438731    53Ag     2.440412  
      53Bu     2.468233    54Ag     2.504290    30Au     2.505666  
      54Bu     2.519629    55Ag     2.527740    55Bu     2.530968  
      29Bg     2.533776    56Bu     2.568167    31Au     2.577261  
      30Bg     2.609975    31Bg     2.620799    57Bu     2.629344  
      56Ag     2.641193    57Ag     2.670535    58Ag     2.674121  
      32Au     2.677097    33Au     2.689624    32Bg     2.693759  
      58Bu     2.703426    59Bu     2.757250    60Bu     2.786271  
      59Ag     2.788390    60Ag     2.851482    61Bu     2.886191  
      61Ag     2.896420    33Bg     2.910823    34Au     2.935139  
      34Bg     2.957968    62Ag     2.987055    62Bu     3.053502  
      63Ag     3.111327    63Bu     4.009023    64Ag     4.028072  
      64Bu     4.069489    65Ag     5.185213    65Bu     5.623829  
      66Ag     6.018108    66Bu     6.199986  

    Final Occupation by Irrep:
             Ag    Bg    Au    Bu 
    DOCC [    13,    4,    4,   12 ]
    SOCC [     0,    0,    0,    0 ]

  @DF-UKS Final Energy: -1592.76364171420073

   => Energetics <=

    Nuclear Repulsion Energy =            310.7834775649928929
    One-Electron Energy =               -2842.6225440593389067
    Two-Electron Energy =                1018.1964937881047035
    DFT Exchange-Correlation Energy =     -79.3872210344201790
    Empirical Dispersion Energy =           0.0000000000000000
    VV10 Nonlocal Energy =                  0.2661520264603638
    Total Energy =                      -1592.7636417142009577

  UHF NO Occupations:
  HONO-2 :   11 Ag 2.0000000
  HONO-1 :   12 Ag 2.0000000
  HONO-0 :   13 Ag 2.0000000
  LUNO+0 :   14 Ag 0.0000000
  LUNO+1 :   15 Ag 0.0000000
  LUNO+2 :    5 Bg 0.0000000
  LUNO+3 :   13 Bu 0.0000000


Computation Completed


Properties will be evaluated at   0.000000,   0.000000,   0.000000 [a0]

Properties computed using the SCF density matrix

  Nuclear Dipole Moment: [e a0]
     X:     0.0000      Y:     0.0000      Z:     0.0000

  Electronic Dipole Moment: [e a0]
     X:     0.0000      Y:     0.0000      Z:     0.0000

  Dipole Moment: [e a0]
     X:     0.0000      Y:     0.0000      Z:     0.0000     Total:     0.0000

  Dipole Moment: [D]
     X:     0.0000      Y:     0.0000      Z:     0.0000     Total:     0.0000


*** tstop() called on b1-21.compute.lan at Thu Feb 11 14:19:33 2021
Module time:
	user time   =     389.32 seconds =       6.49 minutes
	system time =       0.15 seconds =       0.00 minutes
	total time  =        389 seconds =       6.48 minutes
Total time:
	user time   =    1183.56 seconds =      19.73 minutes
	system time =       1.16 seconds =       0.02 minutes
	total time  =       1185 seconds =      19.75 minutes

  //>>>>>>>>>>>>>>>>>>>>>>>>>>>>>>>>>>>//
  //    Loading displacement 4 of 7    //
  //<<<<<<<<<<<<<<<<<<<<<<<<<<<<<<<<<<<//

*** tstart() called on b1-21.compute.lan
*** at Thu Feb 11 14:19:33 2021

   => Loading Basis Set <=

    Name: AUG-CC-PVTZ
    Role: ORBITAL
    Keyword: BASIS
    atoms 1-4 entry S          line   906 file /apps/gb/PSI4/1.4.0/share/psi4/basis/aug-cc-pvtz.gbs 


         ---------------------------------------------------------
                                   SCF
               by Justin Turney, Rob Parrish, Andy Simmonett
                          and Daniel G. A. Smith
                              UKS Reference
                        1 Threads,  15258 MiB Core
         ---------------------------------------------------------

  ==> Geometry <==

    Molecular point group: c2h
    Full point group: C2h

    Geometry (in Angstrom), charge = -2, multiplicity = 1:

       Center              X                  Y                   Z               Mass       
    ------------   -----------------  -----------------  -----------------  -----------------
         S            0.000000000000     1.025169119820     0.000000000000    31.972071174400
         S            0.000000000000    -1.025169119820     0.000000000000    31.972071174400
         S           -1.954116604900     1.552761125493     0.000000000000    31.972071174400
         S            1.954116604900    -1.552761125493     0.000000000000    31.972071174400

  Running in c2h symmetry.

  Rotational constants: A =      0.43880  B =      0.03947  C =      0.03621 [cm^-1]
  Rotational constants: A =  13154.93788  B =   1183.18344  C =   1085.54700 [MHz]
  Nuclear repulsion =  310.823168154871667

  Charge       = -2
  Multiplicity = 1
  Electrons    = 66
  Nalpha       = 33
  Nbeta        = 33

  ==> Algorithm <==

  SCF Algorithm Type is DF.
  DIIS enabled.
  MOM disabled.
  Fractional occupation disabled.
  Guess Type is SAD.
  Energy threshold   = 1.00e-08
  Density threshold  = 1.00e-08
  Integral threshold = 0.00e+00

  ==> Primary Basis <==

  Basis Set: AUG-CC-PVTZ
    Blend: AUG-CC-PVTZ
    Number of shells: 64
    Number of basis function: 200
    Number of Cartesian functions: 236
    Spherical Harmonics?: true
    Max angular momentum: 3

  ==> DFT Potential <==

   => Composite Functional: WB97M-V <= 

    wB97M-V Hyb-GGA Exchange-Correlation Functional

    N. Mardirossian and M. Head-Gordon, J. Chem. Phys. 144, 214110 (2016)

    Deriv               =              1
    GGA                 =           TRUE
    Meta                =           TRUE

    Exchange Hybrid     =           TRUE
    MP2 Hybrid          =          FALSE

   => Exchange-Correlation Functionals <=

    1.0000   wB97M-V exchange-correlation functional

   => Exact (HF) Exchange <=

    0.8500            HF,LR [omega = 0.3000]
    0.1500               HF 

   => VV10 Non-Local Parameters <=

    VV10 B              =     6.0000E+00
    VV10 C              =     1.0000E-02

   => Molecular Quadrature <=

    Radial Scheme          =       TREUTLER
    Pruning Scheme         =           NONE
    Nuclear Scheme         =       TREUTLER

    BS radius alpha        =              1
    Pruning alpha          =              1
    Radial Points          =             99
    Spherical Points       =            590
    Total Points           =         225782
    Total Blocks           =           1817
    Max Points             =            256
    Max Functions          =            200
    Weights Tolerance      =       1.00E-15

   => Loading Basis Set <=

    Name: (AUG-CC-PVTZ AUX)
    Role: JKFIT
    Keyword: DF_BASIS_SCF
    atoms 1-4 entry S          line   730 file /apps/gb/PSI4/1.4.0/share/psi4/basis/aug-cc-pvtz-jkfit.gbs 

  ==> Pre-Iterations <==

   -------------------------------------------------------
    Irrep   Nso     Nmo     Nalpha   Nbeta   Ndocc  Nsocc
   -------------------------------------------------------
     Ag        66      66       0       0       0       0
     Bg        34      34       0       0       0       0
     Au        34      34       0       0       0       0
     Bu        66      66       0       0       0       0
   -------------------------------------------------------
    Total     200     200      33      33      33       0
   -------------------------------------------------------

  ==> Integral Setup <==

  ==> DiskDFJK: Density-Fitted J/K Matrices <==

    J tasked:                  Yes
    K tasked:                  Yes
    wK tasked:                 Yes
    Omega:               3.000E-01
    OpenMP threads:              1
    Integrals threads:           1
    Memory [MiB]:             8621
    Algorithm:                Core
    Integral Cache:           NONE
    Schwarz Cutoff:          1E-12
    Fitting Condition:       1E-10

   => Auxiliary Basis Set <=

  Basis Set: (AUG-CC-PVTZ AUX)
    Blend: AUG-CC-PVTZ-JKFIT
    Number of shells: 168
    Number of basis function: 584
    Number of Cartesian functions: 720
    Spherical Harmonics?: true
    Max angular momentum: 4

  Cached 100.0% of DFT collocation blocks in 2.757 [GiB].

  Minimum eigenvalue in the overlap matrix is 2.1167079902E-04.
  Using Symmetric Orthogonalization.

  SCF Guess: Superposition of Atomic Densities via on-the-fly atomic UHF.

  ==> Iterations <==

                           Total Energy        Delta E     RMS |[F,P]|

   @DF-UKS iter SAD: -1592.29087671570869   -1.59229e+03   0.00000e+00 
   @DF-UKS iter   1: -1592.58490107117564   -2.94024e-01   5.20784e-03 DIIS
   @DF-UKS iter   2: -1592.70336640062715   -1.18465e-01   3.47472e-03 DIIS
   @DF-UKS iter   3: -1592.76230374487113   -5.89373e-02   3.96894e-04 DIIS
   @DF-UKS iter   4: -1592.76333906891568   -1.03532e-03   1.40621e-04 DIIS
   @DF-UKS iter   5: -1592.76353045180576   -1.91383e-04   6.98617e-05 DIIS
   @DF-UKS iter   6: -1592.76357281989158   -4.23681e-05   1.45891e-05 DIIS
   @DF-UKS iter   7: -1592.76357643738720   -3.61750e-06   3.23156e-06 DIIS
   @DF-UKS iter   8: -1592.76357678457475   -3.47188e-07   1.15189e-06 DIIS
   @DF-UKS iter   9: -1592.76357681901663   -3.44419e-08   4.16066e-07 DIIS
   @DF-UKS iter  10: -1592.76357682439766   -5.38103e-09   1.13419e-07 DIIS
   @DF-UKS iter  11: -1592.76357682477874   -3.81078e-10   2.83538e-08 DIIS
   @DF-UKS iter  12: -1592.76357682480784   -2.91038e-11   7.06843e-09 DIIS
  Energy and wave function converged.


  ==> Post-Iterations <==

   @Spin Contamination Metric:   7.815970093E-14
   @S^2 Expected:                0.000000000E+00
   @S^2 Observed:                7.815970093E-14
   @S   Expected:                0.000000000E+00
   @S   Observed:                0.000000000E+00

    Orbital Energies [Eh]
    ---------------------

    Alpha Occupied:                                                       

       1Bu   -88.906027     1Ag   -88.906025     2Bu   -88.850940  
       2Ag   -88.850939     3Ag    -7.816368     3Bu    -7.816304  
       4Ag    -7.763172     4Bu    -7.763170     5Ag    -5.727440  
       5Bu    -5.727245     6Ag    -5.724102     6Bu    -5.724052  
       1Au    -5.717455     1Bg    -5.717446     7Ag    -5.675152  
       7Bu    -5.675151     8Bu    -5.667616     8Ag    -5.667616  
       2Bg    -5.666552     2Au    -5.666552     9Ag    -0.615167  
       9Bu    -0.530668    10Ag    -0.413159    10Bu    -0.337522  
      11Ag    -0.165452    11Bu    -0.144272     3Au    -0.128456  
      12Ag    -0.074937     3Bg    -0.056556    12Bu    -0.014779  
      13Ag     0.014349     4Au     0.027825     4Bg     0.067979  

    Alpha Virtual:                                                        

      13Bu     0.237363    14Ag     0.251508    14Bu     0.256838  
      15Ag     0.288599    16Ag     0.308543     5Au     0.312599  
      15Bu     0.321223     5Bg     0.324345     6Bg     0.328349  
      16Bu     0.340010     6Au     0.348871    17Ag     0.368662  
      17Bu     0.375025    18Ag     0.383989    18Bu     0.388641  
      19Ag     0.404054    19Bu     0.457089    20Ag     0.462095  
      20Bu     0.466540     7Au     0.505580     7Bg     0.521027  
      21Ag     0.546738    21Bu     0.552071    22Bu     0.570674  
       8Bg     0.570699    23Bu     0.575314    22Ag     0.576535  
       8Au     0.580731    23Ag     0.591485     9Au     0.607257  
      24Ag     0.627833    24Bu     0.631004     9Bg     0.635429  
      25Ag     0.653480    10Bg     0.664907    25Bu     0.665739  
      10Au     0.677694    26Bu     0.701005    26Ag     0.724887  
      11Au     0.777505    11Bg     0.839535    27Bu     0.840107  
      27Ag     0.853328    28Ag     0.863938    12Au     0.864320  
      28Bu     0.876101    12Bg     0.882554    29Ag     0.883278  
      29Bu     0.884274    13Au     0.888021    30Ag     0.893113  
      30Bu     0.897378    14Au     0.914162    31Ag     0.939862  
      32Ag     0.945519    13Bg     0.951024    31Bu     0.954388  
      33Ag     0.982150    14Bg     0.983046    15Au     0.992489  
      32Bu     1.002315    33Bu     1.021380    34Ag     1.023058  
      15Bg     1.045230    35Ag     1.060878    16Bg     1.073460  
      16Au     1.091055    34Bu     1.091231    17Au     1.110991  
      17Bg     1.120432    36Ag     1.126480    35Bu     1.127836  
      36Bu     1.143506    37Ag     1.152922    18Bg     1.155340  
      38Ag     1.163967    37Bu     1.175293    18Au     1.233125  
      38Bu     1.259154    39Ag     1.319779    39Bu     1.335549  
      19Au     1.338043    19Bg     1.345346    20Au     1.356441  
      40Ag     1.366519    40Bu     1.381559    20Bg     1.431095  
      41Ag     1.438792    41Bu     1.451715    42Ag     1.486005  
      21Au     1.496876    42Bu     1.499548    21Bg     1.522125  
      22Au     1.543104    43Bu     1.548256    22Bg     1.566478  
      43Ag     1.576913    44Ag     1.611921    44Bu     1.689532  
      45Ag     1.702295    45Bu     1.743570    46Ag     1.838316  
      46Bu     1.869975    23Au     2.156621    47Ag     2.162065  
      23Bg     2.191138    24Bg     2.195605    47Bu     2.197854  
      48Ag     2.207111    48Bu     2.214244    24Au     2.228017  
      49Bu     2.246852    49Ag     2.247201    25Au     2.248053  
      50Bu     2.251747    25Bg     2.281556    26Au     2.332208  
      50Ag     2.342324    51Bu     2.351500    27Au     2.356173  
      26Bg     2.375237    51Ag     2.378826    52Bu     2.388036  
      27Bg     2.394965    28Au     2.396419    52Ag     2.410270  
      28Bg     2.420824    29Au     2.438732    53Ag     2.440426  
      53Bu     2.468212    54Ag     2.504247    30Au     2.505694  
      54Bu     2.519639    55Ag     2.527783    55Bu     2.530911  
      29Bg     2.533771    56Bu     2.568230    31Au     2.577231  
      30Bg     2.610229    31Bg     2.620842    57Bu     2.629356  
      56Ag     2.641245    57Ag     2.670616    58Ag     2.674318  
      32Au     2.677237    33Au     2.689784    32Bg     2.693884  
      58Bu     2.703667    59Bu     2.757336    60Bu     2.786517  
      59Ag     2.788761    60Ag     2.851740    61Bu     2.886664  
      61Ag     2.896981    33Bg     2.911305    34Au     2.935346  
      34Bg     2.958144    62Ag     2.987524    62Bu     3.053653  
      63Ag     3.111515    63Bu     4.009624    64Ag     4.028365  
      64Bu     4.069948    65Ag     5.186682    65Bu     5.624014  
      66Ag     6.018880    66Bu     6.199893  

    Beta Occupied:                                                        

       1Bu   -88.906027     1Ag   -88.906025     2Bu   -88.850940  
       2Ag   -88.850939     3Ag    -7.816368     3Bu    -7.816304  
       4Ag    -7.763172     4Bu    -7.763170     5Ag    -5.727440  
       5Bu    -5.727245     6Ag    -5.724102     6Bu    -5.724052  
       1Au    -5.717455     1Bg    -5.717446     7Ag    -5.675152  
       7Bu    -5.675151     8Bu    -5.667616     8Ag    -5.667616  
       2Bg    -5.666552     2Au    -5.666552     9Ag    -0.615167  
       9Bu    -0.530668    10Ag    -0.413159    10Bu    -0.337522  
      11Ag    -0.165452    11Bu    -0.144272     3Au    -0.128456  
      12Ag    -0.074937     3Bg    -0.056556    12Bu    -0.014779  
      13Ag     0.014349     4Au     0.027825     4Bg     0.067979  

    Beta Virtual:                                                         

      13Bu     0.237363    14Ag     0.251508    14Bu     0.256838  
      15Ag     0.288599    16Ag     0.308543     5Au     0.312599  
      15Bu     0.321223     5Bg     0.324345     6Bg     0.328349  
      16Bu     0.340010     6Au     0.348871    17Ag     0.368662  
      17Bu     0.375025    18Ag     0.383989    18Bu     0.388641  
      19Ag     0.404054    19Bu     0.457089    20Ag     0.462095  
      20Bu     0.466540     7Au     0.505580     7Bg     0.521027  
      21Ag     0.546738    21Bu     0.552071    22Bu     0.570674  
       8Bg     0.570699    23Bu     0.575314    22Ag     0.576535  
       8Au     0.580731    23Ag     0.591485     9Au     0.607257  
      24Ag     0.627833    24Bu     0.631004     9Bg     0.635429  
      25Ag     0.653480    10Bg     0.664907    25Bu     0.665739  
      10Au     0.677694    26Bu     0.701005    26Ag     0.724887  
      11Au     0.777505    11Bg     0.839535    27Bu     0.840107  
      27Ag     0.853328    28Ag     0.863938    12Au     0.864320  
      28Bu     0.876101    12Bg     0.882554    29Ag     0.883278  
      29Bu     0.884274    13Au     0.888021    30Ag     0.893113  
      30Bu     0.897378    14Au     0.914162    31Ag     0.939862  
      32Ag     0.945519    13Bg     0.951024    31Bu     0.954388  
      33Ag     0.982150    14Bg     0.983046    15Au     0.992489  
      32Bu     1.002315    33Bu     1.021380    34Ag     1.023058  
      15Bg     1.045230    35Ag     1.060878    16Bg     1.073460  
      16Au     1.091055    34Bu     1.091231    17Au     1.110991  
      17Bg     1.120432    36Ag     1.126480    35Bu     1.127836  
      36Bu     1.143506    37Ag     1.152922    18Bg     1.155340  
      38Ag     1.163967    37Bu     1.175293    18Au     1.233125  
      38Bu     1.259154    39Ag     1.319779    39Bu     1.335549  
      19Au     1.338043    19Bg     1.345346    20Au     1.356441  
      40Ag     1.366519    40Bu     1.381559    20Bg     1.431095  
      41Ag     1.438792    41Bu     1.451715    42Ag     1.486005  
      21Au     1.496876    42Bu     1.499548    21Bg     1.522125  
      22Au     1.543104    43Bu     1.548256    22Bg     1.566478  
      43Ag     1.576913    44Ag     1.611921    44Bu     1.689532  
      45Ag     1.702295    45Bu     1.743570    46Ag     1.838316  
      46Bu     1.869975    23Au     2.156621    47Ag     2.162065  
      23Bg     2.191138    24Bg     2.195605    47Bu     2.197854  
      48Ag     2.207111    48Bu     2.214244    24Au     2.228017  
      49Bu     2.246852    49Ag     2.247201    25Au     2.248053  
      50Bu     2.251747    25Bg     2.281556    26Au     2.332208  
      50Ag     2.342324    51Bu     2.351500    27Au     2.356173  
      26Bg     2.375237    51Ag     2.378826    52Bu     2.388036  
      27Bg     2.394965    28Au     2.396419    52Ag     2.410270  
      28Bg     2.420824    29Au     2.438732    53Ag     2.440426  
      53Bu     2.468212    54Ag     2.504247    30Au     2.505694  
      54Bu     2.519639    55Ag     2.527783    55Bu     2.530911  
      29Bg     2.533771    56Bu     2.568230    31Au     2.577231  
      30Bg     2.610229    31Bg     2.620842    57Bu     2.629356  
      56Ag     2.641245    57Ag     2.670616    58Ag     2.674318  
      32Au     2.677237    33Au     2.689784    32Bg     2.693884  
      58Bu     2.703667    59Bu     2.757336    60Bu     2.786517  
      59Ag     2.788761    60Ag     2.851740    61Bu     2.886664  
      61Ag     2.896981    33Bg     2.911305    34Au     2.935346  
      34Bg     2.958144    62Ag     2.987524    62Bu     3.053653  
      63Ag     3.111515    63Bu     4.009624    64Ag     4.028365  
      64Bu     4.069948    65Ag     5.186682    65Bu     5.624014  
      66Ag     6.018880    66Bu     6.199893  

    Final Occupation by Irrep:
             Ag    Bg    Au    Bu 
    DOCC [    13,    4,    4,   12 ]
    SOCC [     0,    0,    0,    0 ]

  @DF-UKS Final Energy: -1592.76357682480784

   => Energetics <=

    Nuclear Repulsion Energy =            310.8231681548716665
    One-Electron Energy =               -2842.7017300366019299
    Two-Electron Energy =                1018.2363536774056456
    DFT Exchange-Correlation Energy =     -79.3875193811125826
    Empirical Dispersion Energy =           0.0000000000000000
    VV10 Nonlocal Energy =                  0.2661507606296205
    Total Energy =                      -1592.7635768248073873

  UHF NO Occupations:
  HONO-2 :   12 Bu 2.0000000
  HONO-1 :   12 Ag 2.0000000
  HONO-0 :   13 Ag 2.0000000
  LUNO+0 :   14 Ag 0.0000000
  LUNO+1 :   15 Ag 0.0000000
  LUNO+2 :   13 Bu 0.0000000
  LUNO+3 :   16 Ag 0.0000000


Computation Completed


Properties will be evaluated at   0.000000,   0.000000,   0.000000 [a0]

Properties computed using the SCF density matrix

  Nuclear Dipole Moment: [e a0]
     X:     0.0000      Y:    -0.0000      Z:     0.0000

  Electronic Dipole Moment: [e a0]
     X:     0.0000      Y:     0.0000      Z:     0.0000

  Dipole Moment: [e a0]
     X:     0.0000      Y:    -0.0000      Z:     0.0000     Total:     0.0000

  Dipole Moment: [D]
     X:     0.0000      Y:    -0.0000      Z:     0.0000     Total:     0.0000


*** tstop() called on b1-21.compute.lan at Thu Feb 11 14:25:57 2021
Module time:
	user time   =     382.93 seconds =       6.38 minutes
	system time =       0.15 seconds =       0.00 minutes
	total time  =        384 seconds =       6.40 minutes
Total time:
	user time   =    1566.49 seconds =      26.11 minutes
	system time =       1.31 seconds =       0.02 minutes
	total time  =       1569 seconds =      26.15 minutes

  //>>>>>>>>>>>>>>>>>>>>>>>>>>>>>>>>>>>//
  //    Loading displacement 5 of 7    //
  //<<<<<<<<<<<<<<<<<<<<<<<<<<<<<<<<<<<//

*** tstart() called on b1-21.compute.lan
*** at Thu Feb 11 14:25:57 2021

   => Loading Basis Set <=

    Name: AUG-CC-PVTZ
    Role: ORBITAL
    Keyword: BASIS
    atoms 1-4 entry S          line   906 file /apps/gb/PSI4/1.4.0/share/psi4/basis/aug-cc-pvtz.gbs 


         ---------------------------------------------------------
                                   SCF
               by Justin Turney, Rob Parrish, Andy Simmonett
                          and Daniel G. A. Smith
                              UKS Reference
                        1 Threads,  15258 MiB Core
         ---------------------------------------------------------

  ==> Geometry <==

    Molecular point group: c2h
    Full point group: C2h

    Geometry (in Angstrom), charge = -2, multiplicity = 1:

       Center              X                  Y                   Z               Mass       
    ------------   -----------------  -----------------  -----------------  -----------------
         S            0.000000000000     1.025830880180     0.000000000000    31.972071174400
         S            0.000000000000    -1.025830880180     0.000000000000    31.972071174400
         S           -1.954116604900     1.552761125493     0.000000000000    31.972071174400
         S            1.954116604900    -1.552761125493     0.000000000000    31.972071174400

  Running in c2h symmetry.

  Rotational constants: A =      0.43828  B =      0.03946  C =      0.03620 [cm^-1]
  Rotational constants: A =  13139.22755  B =   1183.07028  C =   1085.34467 [MHz]
  Nuclear repulsion =  310.778294117879454

  Charge       = -2
  Multiplicity = 1
  Electrons    = 66
  Nalpha       = 33
  Nbeta        = 33

  ==> Algorithm <==

  SCF Algorithm Type is DF.
  DIIS enabled.
  MOM disabled.
  Fractional occupation disabled.
  Guess Type is SAD.
  Energy threshold   = 1.00e-08
  Density threshold  = 1.00e-08
  Integral threshold = 0.00e+00

  ==> Primary Basis <==

  Basis Set: AUG-CC-PVTZ
    Blend: AUG-CC-PVTZ
    Number of shells: 64
    Number of basis function: 200
    Number of Cartesian functions: 236
    Spherical Harmonics?: true
    Max angular momentum: 3

  ==> DFT Potential <==

   => Composite Functional: WB97M-V <= 

    wB97M-V Hyb-GGA Exchange-Correlation Functional

    N. Mardirossian and M. Head-Gordon, J. Chem. Phys. 144, 214110 (2016)

    Deriv               =              1
    GGA                 =           TRUE
    Meta                =           TRUE

    Exchange Hybrid     =           TRUE
    MP2 Hybrid          =          FALSE

   => Exchange-Correlation Functionals <=

    1.0000   wB97M-V exchange-correlation functional

   => Exact (HF) Exchange <=

    0.8500            HF,LR [omega = 0.3000]
    0.1500               HF 

   => VV10 Non-Local Parameters <=

    VV10 B              =     6.0000E+00
    VV10 C              =     1.0000E-02

   => Molecular Quadrature <=

    Radial Scheme          =       TREUTLER
    Pruning Scheme         =           NONE
    Nuclear Scheme         =       TREUTLER

    BS radius alpha        =              1
    Pruning alpha          =              1
    Radial Points          =             99
    Spherical Points       =            590
    Total Points           =         225775
    Total Blocks           =           1825
    Max Points             =            256
    Max Functions          =            200
    Weights Tolerance      =       1.00E-15

   => Loading Basis Set <=

    Name: (AUG-CC-PVTZ AUX)
    Role: JKFIT
    Keyword: DF_BASIS_SCF
    atoms 1-4 entry S          line   730 file /apps/gb/PSI4/1.4.0/share/psi4/basis/aug-cc-pvtz-jkfit.gbs 

  ==> Pre-Iterations <==

   -------------------------------------------------------
    Irrep   Nso     Nmo     Nalpha   Nbeta   Ndocc  Nsocc
   -------------------------------------------------------
     Ag        66      66       0       0       0       0
     Bg        34      34       0       0       0       0
     Au        34      34       0       0       0       0
     Bu        66      66       0       0       0       0
   -------------------------------------------------------
    Total     200     200      33      33      33       0
   -------------------------------------------------------

  ==> Integral Setup <==

  ==> DiskDFJK: Density-Fitted J/K Matrices <==

    J tasked:                  Yes
    K tasked:                  Yes
    wK tasked:                 Yes
    Omega:               3.000E-01
    OpenMP threads:              1
    Integrals threads:           1
    Memory [MiB]:             8620
    Algorithm:                Core
    Integral Cache:           NONE
    Schwarz Cutoff:          1E-12
    Fitting Condition:       1E-10

   => Auxiliary Basis Set <=

  Basis Set: (AUG-CC-PVTZ AUX)
    Blend: AUG-CC-PVTZ-JKFIT
    Number of shells: 168
    Number of basis function: 584
    Number of Cartesian functions: 720
    Spherical Harmonics?: true
    Max angular momentum: 4

  Cached 100.0% of DFT collocation blocks in 2.757 [GiB].

  Minimum eigenvalue in the overlap matrix is 2.1188828500E-04.
  Using Symmetric Orthogonalization.

  SCF Guess: Superposition of Atomic Densities via on-the-fly atomic UHF.

  ==> Iterations <==

                           Total Energy        Delta E     RMS |[F,P]|

   @DF-UKS iter SAD: -1592.28969861686642   -1.59229e+03   0.00000e+00 
   @DF-UKS iter   1: -1592.58497737448397   -2.95279e-01   5.20774e-03 DIIS
   @DF-UKS iter   2: -1592.70342473824394   -1.18447e-01   3.47490e-03 DIIS
[...]

      26Ap     0.236252    27Ap     0.250679    28Ap     0.255850  
      29Ap     0.287370    30Ap     0.308782     9App    0.311999  
      31Ap     0.317056    10App    0.321916    11App    0.327719  
      32Ap     0.337954    12App    0.347593    33Ap     0.362668  
      34Ap     0.366165    35Ap     0.370800    36Ap     0.383289  
      37Ap     0.391372    38Ap     0.455195    39Ap     0.458521  
      40Ap     0.463951    13App    0.502626    14App    0.519185  
      41Ap     0.544695    42Ap     0.546014    43Ap     0.563192  
      15App    0.566095    44Ap     0.574725    45Ap     0.575919  
      16App    0.576059    46Ap     0.590473    17App    0.604722  
      47Ap     0.625441    48Ap     0.626515    18App    0.633631  
      49Ap     0.645097    50Ap     0.656784    19App    0.662779  
      20App    0.670838    51Ap     0.692561    52Ap     0.721370  
      21App    0.776930    22App    0.838756    53Ap     0.840912  
      54Ap     0.848028    23App    0.863679    55Ap     0.871216  
      56Ap     0.872771    24App    0.880525    57Ap     0.881764  
      58Ap     0.885977    25App    0.888194    59Ap     0.893979  
      60Ap     0.901462    26App    0.911458    61Ap     0.929914  
      62Ap     0.949305    63Ap     0.950793    27App    0.951473  
      64Ap     0.974546    28App    0.974856    29App    0.990885  
      65Ap     1.000283    66Ap     1.011343    67Ap     1.011511  
      30App    1.037467    68Ap     1.048779    31App    1.059017  
      69Ap     1.072132    32App    1.079850    33App    1.103557  
      34App    1.103704    70Ap     1.107760    71Ap     1.112373  
      72Ap     1.124444    73Ap     1.138092    35App    1.148728  
      74Ap     1.151965    75Ap     1.158519    36App    1.218075  
      76Ap     1.228561    77Ap     1.297714    78Ap     1.313983  
      37App    1.318923    38App    1.331429    39App    1.336877  
      79Ap     1.348245    80Ap     1.358125    40App    1.413264  
      81Ap     1.424393    82Ap     1.438459    83Ap     1.471737  
      84Ap     1.473372    41App    1.475435    42App    1.505812  
      43App    1.530892    85Ap     1.531119    86Ap     1.545750  
      44App    1.548236    87Ap     1.602436    88Ap     1.661289  
      89Ap     1.669937    90Ap     1.717142    91Ap     1.817903  
      92Ap     1.865801    45App    2.150830    93Ap     2.164010  
      46App    2.185091    47App    2.189825    94Ap     2.190924  
      95Ap     2.201772    96Ap     2.208017    48App    2.214351  
      49App    2.237296    97Ap     2.241167    98Ap     2.257557  
      99Ap     2.267063    50App    2.280547    51App    2.332533  
     100Ap     2.347108   101Ap     2.351573   102Ap     2.369808  
      52App    2.374620    53App    2.377109    54App    2.387417  
      55App    2.395094   103Ap     2.398933   104Ap     2.409845  
      56App    2.433122   105Ap     2.434670    57App    2.435540  
     106Ap     2.471611   107Ap     2.487231    58App    2.503221  
     108Ap     2.503501   109Ap     2.517171    59App    2.522997  
     110Ap     2.535849   111Ap     2.559918    60App    2.571939  
      61App    2.574840   112Ap     2.596233    62App    2.599855  
     113Ap     2.612932   114Ap     2.623964    63App    2.644702  
      64App    2.652808   115Ap     2.666530    65App    2.678174  
     116Ap     2.682684   117Ap     2.727326   118Ap     2.727897  
     119Ap     2.750597   120Ap     2.807176   121Ap     2.813275  
     122Ap     2.819542    66App    2.837244    67App    2.894916  
      68App    2.910711   123Ap     2.952366   124Ap     2.979137  
     125Ap     3.016672   126Ap     3.868409   127Ap     3.952811  
     128Ap     3.999335   129Ap     5.016981   130Ap     5.510918  
     131Ap     5.925979   132Ap     6.205181  

    Beta Occupied:                                                        

       1Ap   -88.913842     2Ap   -88.913834     3Ap   -88.855964  
       4Ap   -88.855950     5Ap    -7.822118     6Ap    -7.822079  
       7Ap    -7.767145     8Ap    -7.767142     9Ap    -5.733247  
      10Ap    -5.733145    11Ap    -5.730158    12Ap    -5.730132  
       1App   -5.723180     2App   -5.723176    13Ap    -5.679339  
      14Ap    -5.679332    15Ap    -5.671619    16Ap    -5.671618  
       3App   -5.670460     4App   -5.670457    17Ap    -0.594320  
      18Ap    -0.521887    19Ap    -0.409575    20Ap    -0.349072  
      21Ap    -0.157062    22Ap    -0.136577     5App   -0.118273  
      23Ap    -0.077129     6App   -0.055446    24Ap    -0.017683  
      25Ap     0.013681     7App    0.024303     8App    0.056335  

    Beta Virtual:                                                         

      26Ap     0.236252    27Ap     0.250679    28Ap     0.255850  
      29Ap     0.287370    30Ap     0.308782     9App    0.311999  
      31Ap     0.317056    10App    0.321916    11App    0.327719  
      32Ap     0.337954    12App    0.347593    33Ap     0.362668  
      34Ap     0.366165    35Ap     0.370800    36Ap     0.383289  
      37Ap     0.391372    38Ap     0.455195    39Ap     0.458521  
      40Ap     0.463951    13App    0.502626    14App    0.519185  
      41Ap     0.544695    42Ap     0.546014    43Ap     0.563192  
      15App    0.566095    44Ap     0.574725    45Ap     0.575919  
      16App    0.576059    46Ap     0.590473    17App    0.604722  
      47Ap     0.625441    48Ap     0.626515    18App    0.633631  
      49Ap     0.645097    50Ap     0.656784    19App    0.662779  
      20App    0.670838    51Ap     0.692561    52Ap     0.721370  
      21App    0.776930    22App    0.838756    53Ap     0.840912  
      54Ap     0.848028    23App    0.863679    55Ap     0.871216  
      56Ap     0.872771    24App    0.880525    57Ap     0.881764  
      58Ap     0.885977    25App    0.888194    59Ap     0.893979  
      60Ap     0.901462    26App    0.911458    61Ap     0.929914  
      62Ap     0.949305    63Ap     0.950793    27App    0.951473  
      64Ap     0.974546    28App    0.974856    29App    0.990885  
      65Ap     1.000283    66Ap     1.011343    67Ap     1.011511  
      30App    1.037467    68Ap     1.048779    31App    1.059017  
      69Ap     1.072132    32App    1.079850    33App    1.103557  
      34App    1.103704    70Ap     1.107760    71Ap     1.112373  
      72Ap     1.124444    73Ap     1.138092    35App    1.148728  
      74Ap     1.151965    75Ap     1.158519    36App    1.218075  
      76Ap     1.228561    77Ap     1.297714    78Ap     1.313983  
      37App    1.318923    38App    1.331429    39App    1.336877  
      79Ap     1.348245    80Ap     1.358125    40App    1.413264  
      81Ap     1.424393    82Ap     1.438459    83Ap     1.471737  
      84Ap     1.473372    41App    1.475435    42App    1.505812  
      43App    1.530892    85Ap     1.531119    86Ap     1.545750  
      44App    1.548236    87Ap     1.602436    88Ap     1.661289  
      89Ap     1.669937    90Ap     1.717142    91Ap     1.817903  
      92Ap     1.865801    45App    2.150830    93Ap     2.164010  
      46App    2.185091    47App    2.189825    94Ap     2.190924  
      95Ap     2.201772    96Ap     2.208017    48App    2.214351  
      49App    2.237296    97Ap     2.241167    98Ap     2.257557  
      99Ap     2.267063    50App    2.280547    51App    2.332533  
     100Ap     2.347108   101Ap     2.351573   102Ap     2.369808  
      52App    2.374620    53App    2.377109    54App    2.387417  
      55App    2.395094   103Ap     2.398933   104Ap     2.409845  
      56App    2.433122   105Ap     2.434670    57App    2.435540  
     106Ap     2.471611   107Ap     2.487231    58App    2.503221  
     108Ap     2.503501   109Ap     2.517171    59App    2.522997  
     110Ap     2.535849   111Ap     2.559918    60App    2.571939  
      61App    2.574840   112Ap     2.596233    62App    2.599855  
     113Ap     2.612932   114Ap     2.623964    63App    2.644702  
      64App    2.652808   115Ap     2.666530    65App    2.678174  
     116Ap     2.682684   117Ap     2.727326   118Ap     2.727897  
     119Ap     2.750597   120Ap     2.807176   121Ap     2.813275  
     122Ap     2.819542    66App    2.837244    67App    2.894916  
      68App    2.910711   123Ap     2.952366   124Ap     2.979137  
     125Ap     3.016672   126Ap     3.868409   127Ap     3.952811  
     128Ap     3.999335   129Ap     5.016981   130Ap     5.510918  
     131Ap     5.925979   132Ap     6.205181  

    Final Occupation by Irrep:
             Ap   App 
    DOCC [    25,    8 ]
    SOCC [     0,    0 ]

  @DF-UKS Final Energy: -1592.76873631335820

   => Energetics <=

    Nuclear Repulsion Energy =            300.6390387807705338
    One-Electron Energy =               -2822.2227745068475997
    Two-Electron Energy =                1007.8819169882386859
    DFT Exchange-Correlation Energy =     -79.3335845161397799
    Empirical Dispersion Energy =           0.0000000000000000
    VV10 Nonlocal Energy =                  0.2666669406197238
    Total Energy =                      -1592.7687363133586587

  UHF NO Occupations:
  HONO-2 :   23 Ap 2.0000000
  HONO-1 :   24 Ap 2.0000000
  HONO-0 :   25 Ap 2.0000000
  LUNO+0 :   26 Ap 0.0000000
  LUNO+1 :   27 Ap 0.0000000
  LUNO+2 :   28 Ap 0.0000000
  LUNO+3 :   29 Ap 0.0000000


Computation Completed


Properties will be evaluated at   0.000000,   0.000000,   0.000000 [a0]

Properties computed using the SCF density matrix

  Nuclear Dipole Moment: [e a0]
     X:     0.0000      Y:    -0.0000      Z:     0.0000

  Electronic Dipole Moment: [e a0]
     X:    -0.0007      Y:     0.0002      Z:     0.0000

  Dipole Moment: [e a0]
     X:    -0.0007      Y:     0.0002      Z:     0.0000     Total:     0.0007

  Dipole Moment: [D]
     X:    -0.0017      Y:     0.0006      Z:     0.0000     Total:     0.0018


*** tstop() called on b1-21.compute.lan at Fri Feb 12 00:20:36 2021
Module time:
	user time   =     496.02 seconds =       8.27 minutes
	system time =       0.18 seconds =       0.00 minutes
	total time  =        497 seconds =       8.28 minutes
Total time:
	user time   =   37220.15 seconds =     620.34 minutes
	system time =      16.81 seconds =       0.28 minutes
	total time  =      37248 seconds =     620.80 minutes

         ----------------------------------------------------------
                                   FINDIF
                     R. A. King and Jonathon Misiewicz
         ---------------------------------------------------------

  Computing second-derivative from energies using projected, 
  symmetry-adapted, cartesian coordinates.

  18 energies passed in, including the reference geometry.
    Using 3-point formula.
    Energy without displacement: -1592.7687363860
    Check energies below for precision!
    0: -1        :     -1592.7687362967
    0: 1         :     -1592.7687362959
    1: -1        :     -1592.7687362849
    1: 1         :     -1592.7687362829
    2: -1        :     -1592.7687363317
    2: 1         :     -1592.7687363311
    0: 1, 1: 1   :     -1592.7687361670
    0: -1, 1: -1 :     -1592.7687361686
    0: 1, 2: 1   :     -1592.7687363376
    0: -1, 2: -1 :     -1592.7687363402
    1: 1, 2: 1   :     -1592.7687362038
    1: -1, 2: -1 :     -1592.7687362044
    3: -1        :     -1592.7687363844
    4: -1        :     -1592.7687362719
    5: -1        :     -1592.7687363697
    4: 1, 5: 1   :     -1592.7687363130
    4: -1, 5: -1 :     -1592.7687363134

-------------------------------------------------------------


  ==> Harmonic Vibrational Analysis <==

  non-mass-weighted Hessian:       Symmetric? True   Hermitian? True   Lin Dep Dim?  6 (0)
  projection of translations (True) and rotations (True) removed 6 degrees of freedom (6)
  total projector:                 Symmetric? True   Hermitian? True   Lin Dep Dim?  6 (6)
  mass-weighted Hessian:           Symmetric? True   Hermitian? True   Lin Dep Dim?  6 (0)
  pre-proj  low-frequency mode:    0.0000i [cm^-1]
  pre-proj  low-frequency mode:    0.0000i [cm^-1]
  pre-proj  low-frequency mode:    0.0000  [cm^-1]
  pre-proj  low-frequency mode:    0.0000  [cm^-1]
  pre-proj  low-frequency mode:    0.0000  [cm^-1]
  pre-proj  low-frequency mode:    0.0000  [cm^-1]
  pre-proj  low-frequency mode:   57.8976  [cm^-1]
  pre-proj  all modes:['0.0000i' '0.0000i' '0.0000' '0.0000' '0.0000' '0.0000' '57.8976'
 '133.2566' '187.8881' '471.4957' '507.5926' '512.9270']
  projected mass-weighted Hessian: Symmetric? True   Hermitian? True   Lin Dep Dim?  6 (6)
  post-proj low-frequency mode:    0.0000i [cm^-1] (TR)
  post-proj low-frequency mode:    0.0000i [cm^-1] (TR)
  post-proj low-frequency mode:    0.0000i [cm^-1] (TR)
  post-proj low-frequency mode:    0.0000  [cm^-1] (TR)
  post-proj low-frequency mode:    0.0000  [cm^-1] (TR)
  post-proj low-frequency mode:    0.0000  [cm^-1] (TR)
  post-proj low-frequency mode:   57.8976  [cm^-1] (V)
  post-proj  all modes:['0.0000i' '0.0000i' '0.0000i' '0.0000' '0.0000' '0.0000' '57.8976'
 '133.2566' '187.8881' '471.4957' '507.5926' '512.9270']

  Vibration                       7                   8                   9           
  Freq [cm^-1]                 57.8976             133.2566            187.8881       
  Irrep                           Au                  Bu                  Ag          
  Reduced mass [u]             31.9721             31.9721             31.9721        
  Force const [mDyne/A]         0.0631              0.3345              0.6650        
  Turning point v=0 [a0]        0.2550              0.1681              0.1416        
  RMS dev v=0 [a0 u^1/2]        1.0197              0.6721              0.5660        
  Char temp [K]                83.3017             191.7266            270.3292       
  ----------------------------------------------------------------------------------
      1   S                0.00  0.00  0.50    0.13  0.48 -0.00   -0.37  0.15  0.00   
      2   S               -0.00  0.00  0.50    0.13  0.48  0.00    0.37 -0.15  0.00   
      3   S                0.00  0.00 -0.50   -0.13 -0.48 -0.00   -0.35  0.47  0.00   
      4   S               -0.00  0.00 -0.50   -0.13 -0.48 -0.00    0.35 -0.47 -0.00   

  Vibration                       10                  11                  12          
  Freq [cm^-1]                 471.4957            507.5926            512.9270       
  Irrep                           Ag                  Bu                  Ag          
  Reduced mass [u]             31.9721             31.9721             31.9721        
  Force const [mDyne/A]         4.1877              4.8535              4.9560        
  Turning point v=0 [a0]        0.0894              0.0861              0.0857        
  RMS dev v=0 [a0 u^1/2]        0.3573              0.3444              0.3426        
  Char temp [K]                678.3773            730.3128            737.9877       
  ----------------------------------------------------------------------------------
      1   S               -0.02  0.68  0.00    0.48 -0.13 -0.00    0.54  0.13  0.00   
      2   S                0.02 -0.68 -0.00    0.48 -0.13  0.00   -0.54 -0.13 -0.00   
      3   S                0.16 -0.11  0.00   -0.48  0.13  0.00   -0.44  0.06 -0.00   
      4   S               -0.16  0.11 -0.00   -0.48  0.13 -0.00    0.44 -0.06  0.00   

  ==> Thermochemistry Components <==

  Entropy, S
    Electronic S            0.000 [cal/(mol K)]        0.000 [J/(mol K)]       0.00000000 [mEh/K] (multiplicity = 1)
    Translational S        40.451 [cal/(mol K)]      169.248 [J/(mol K)]       0.06446314 [mEh/K] (mol. weight = 127.8883 [u], P = 101325.00 [Pa])
    Rotational S           26.190 [cal/(mol K)]      109.581 [J/(mol K)]       0.04173720 [mEh/K] (symmetry no. = 2)
    Vibrational S          11.674 [cal/(mol K)]       48.844 [J/(mol K)]       0.01860372 [mEh/K]
  Total S                  78.316 [cal/(mol K)]      327.673 [J/(mol K)]       0.12480406 [mEh/K]
  Correction S              0.000 [cal/(mol K)]        0.000 [J/(mol K)]       0.00000000 [mEh/K]

  Constant volume heat capacity, Cv
    Electronic Cv           0.000 [cal/(mol K)]        0.000 [J/(mol K)]       0.00000000 [mEh/K]
    Translational Cv        2.981 [cal/(mol K)]       12.472 [J/(mol K)]       0.00475022 [mEh/K]
    Rotational Cv           2.981 [cal/(mol K)]       12.472 [J/(mol K)]       0.00475022 [mEh/K]
    Vibrational Cv          9.519 [cal/(mol K)]       39.826 [J/(mol K)]       0.01516908 [mEh/K]
  Total Cv                 15.480 [cal/(mol K)]       64.770 [J/(mol K)]       0.02466951 [mEh/K]
  Correction Cv             0.000 [cal/(mol K)]        0.000 [J/(mol K)]       0.00000000 [mEh/K]

  Constant pressure heat capacity, Cp
    Electronic Cp           0.000 [cal/(mol K)]        0.000 [J/(mol K)]       0.00000000 [mEh/K]
    Translational Cp        4.968 [cal/(mol K)]       20.786 [J/(mol K)]       0.00791703 [mEh/K]
    Rotational Cp           2.981 [cal/(mol K)]       12.472 [J/(mol K)]       0.00475022 [mEh/K]
    Vibrational Cp          9.519 [cal/(mol K)]       39.826 [J/(mol K)]       0.01516908 [mEh/K]
  Total Cp                 17.468 [cal/(mol K)]       73.084 [J/(mol K)]       0.02783632 [mEh/K]
  Correction Cp             0.000 [cal/(mol K)]        0.000 [J/(mol K)]       0.00000000 [mEh/K]

  ==> Thermochemistry Energy Analysis <==

  Raw electronic energy, E0
  Total E0, Electronic energy at well bottom at 0 [K]                -1592.76873639 [Eh]

  Zero-point energy, ZPE_vib = Sum_i nu_i / 2
    Electronic ZPE          0.000 [kcal/mol]        0.000 [kJ/mol]       0.00000000 [Eh]
    Translational ZPE       0.000 [kcal/mol]        0.000 [kJ/mol]       0.00000000 [Eh]
    Rotational ZPE          0.000 [kcal/mol]        0.000 [kJ/mol]       0.00000000 [Eh]
    Vibrational ZPE         2.675 [kcal/mol]       11.191 [kJ/mol]       0.00426258 [Eh]         935.529 [cm^-1]
  Correction ZPE            2.675 [kcal/mol]       11.191 [kJ/mol]       0.00426258 [Eh]         935.529 [cm^-1]
  Total ZPE, Electronic energy at 0 [K]                              -1592.76447380 [Eh]

  Thermal Energy, E (includes ZPE)
    Electronic E            0.000 [kcal/mol]        0.000 [kJ/mol]       0.00000000 [Eh]
    Translational E         0.889 [kcal/mol]        3.718 [kJ/mol]       0.00141628 [Eh]
    Rotational E            0.889 [kcal/mol]        3.718 [kJ/mol]       0.00141628 [Eh]
    Vibrational E           4.401 [kcal/mol]       18.413 [kJ/mol]       0.00701321 [Eh]
  Correction E              6.178 [kcal/mol]       25.850 [kJ/mol]       0.00984576 [Eh]
  Total E, Electronic energy at  298.15 [K]                          -1592.75889063 [Eh]

  Enthalpy, H_trans = E_trans + k_B * T
    Electronic H            0.000 [kcal/mol]        0.000 [kJ/mol]       0.00000000 [Eh]
    Translational H         1.481 [kcal/mol]        6.197 [kJ/mol]       0.00236046 [Eh]
    Rotational H            0.889 [kcal/mol]        3.718 [kJ/mol]       0.00141628 [Eh]
    Vibrational H           4.401 [kcal/mol]       18.413 [kJ/mol]       0.00701321 [Eh]
  Correction H              6.771 [kcal/mol]       28.329 [kJ/mol]       0.01078994 [Eh]
  Total H, Enthalpy at  298.15 [K]                                   -1592.75794644 [Eh]

  Gibbs free energy, G = H - T * S
    Electronic G            0.000 [kcal/mol]        0.000 [kJ/mol]       0.00000000 [Eh]
    Translational G       -10.579 [kcal/mol]      -44.264 [kJ/mol]      -0.01685922 [Eh]
    Rotational G           -6.920 [kcal/mol]      -28.953 [kJ/mol]      -0.01102767 [Eh]
    Vibrational G           0.920 [kcal/mol]        3.850 [kJ/mol]       0.00146651 [Eh]
  Correction G            -16.579 [kcal/mol]      -69.367 [kJ/mol]      -0.02642039 [Eh]
  Total G, Free enthalpy at  298.15 [K]                              -1592.79515677 [Eh]

    Psi4 stopped on: Friday, 12 February 2021 12:20AM
    Psi4 wall time for execution: 10:20:47.77

*** Psi4 exiting successfully. Buy a developer a beer!
