
    -----------------------------------------------------------------------
          Psi4: An Open-Source Ab Initio Electronic Structure Package
                               Psi4 1.4a2.dev191 

                         Git: Rev {master} 0ab5346 


    R. M. Parrish, L. A. Burns, D. G. A. Smith, A. C. Simmonett,
    A. E. DePrince III, E. G. Hohenstein, U. Bozkaya, A. Yu. Sokolov,
    R. Di Remigio, R. M. Richard, J. F. Gonthier, A. M. James,
    H. R. McAlexander, A. Kumar, M. Saitow, X. Wang, B. P. Pritchard,
    P. Verma, H. F. Schaefer III, K. Patkowski, R. A. King, E. F. Valeev,
    F. A. Evangelista, J. M. Turney, T. D. Crawford, and C. D. Sherrill,
    J. Chem. Theory Comput. 13(7) pp 3185--3197 (2017).
    (doi: 10.1021/acs.jctc.7b00174)


                         Additional Contributions by
    P. Kraus, H. Kruse, M. H. Lechner, M. C. Schieber, R. A. Shaw,
    A. Alenaizan, R. Galvelis, Z. L. Glick, S. Lehtola, and J. P. Misiewicz

    -----------------------------------------------------------------------


    Psi4 started on: Tuesday, 02 February 2021 11:28AM

    Process ID: 11193
    Host:       c1-9.compute.lan
    PSIDATADIR: /apps/gb/PSI4/1.4.0/share/psi4
    Memory:     500.0 MiB
    Threads:    1
    
  ==> Input File <==

--------------------------------------------------------------------------
memory 10 GB

molecule  {
-1 2
S
S 1 r1
r1 = 2.0
}

set {
reference uks
basis aug-cc-pvtz
g_convergence gau_verytight
dft_spherical_points 590
dft_radial_points 99
}

optimize('wb97m-v')
frequencies('wb97m-v')

--------------------------------------------------------------------------

  Memory set to   9.313 GiB by Python driver.
gradient() will perform gradient computation by finite difference of analytic energies.

         ----------------------------------------------------------
                                   FINDIF
                     R. A. King and Jonathon Misiewicz
         ---------------------------------------------------------

  Using finite-differences of energies to determine gradients.
    Generating geometries for use with 3-point formula.
    Displacement size will be 5.00e-03.
    Number of atoms is 2.
    Number of symmetric SALCs is 1.
    Translations projected? 1. Rotations projected? 1.
    Number of geometries (including reference) is 3.

  //>>>>>>>>>>>>>>>>>>>>>>>>>>>>>>>>>>>//
  //    Loading displacement 1 of 3    //
  //<<<<<<<<<<<<<<<<<<<<<<<<<<<<<<<<<<<//

*** tstart() called on c1-9.compute.lan
*** at Tue Feb  2 11:28:42 2021

   => Loading Basis Set <=

    Name: AUG-CC-PVTZ
    Role: ORBITAL
    Keyword: BASIS
    atoms 1-2 entry S          line   906 file /apps/gb/PSI4/1.4.0/share/psi4/basis/aug-cc-pvtz.gbs 


         ---------------------------------------------------------
                                   SCF
               by Justin Turney, Rob Parrish, Andy Simmonett
                          and Daniel G. A. Smith
                              UKS Reference
                        1 Threads,   9536 MiB Core
         ---------------------------------------------------------

  ==> Geometry <==

    Molecular point group: d2h
    Full point group: D_inf_h

    Geometry (in Angstrom), charge = -1, multiplicity = 2:

       Center              X                  Y                   Z               Mass       
    ------------   -----------------  -----------------  -----------------  -----------------
         S            0.000000000000     0.000000000000    -1.000000000000    31.972071174400
         S            0.000000000000     0.000000000000     1.000000000000    31.972071174400

  Running in d2h symmetry.

  Rotational constants: A = ************  B =      0.26363  C =      0.26363 [cm^-1]
  Rotational constants: A = ************  B =   7903.44495  C =   7903.44495 [MHz]
  Nuclear repulsion =   67.734682965759930

  Charge       = -1
  Multiplicity = 2
  Electrons    = 33
  Nalpha       = 17
  Nbeta        = 16

  ==> Algorithm <==

  SCF Algorithm Type is DF.
  DIIS enabled.
  MOM disabled.
  Fractional occupation disabled.
  Guess Type is SAD.
  Energy threshold   = 1.00e-08
  Density threshold  = 1.00e-08
  Integral threshold = 0.00e+00

  ==> Primary Basis <==

  Basis Set: AUG-CC-PVTZ
    Blend: AUG-CC-PVTZ
    Number of shells: 32
    Number of basis function: 100
    Number of Cartesian functions: 118
    Spherical Harmonics?: true
    Max angular momentum: 3

  ==> DFT Potential <==

   => Composite Functional: WB97M-V <= 

    wB97M-V Hyb-GGA Exchange-Correlation Functional

    N. Mardirossian and M. Head-Gordon, J. Chem. Phys. 144, 214110 (2016)

    Deriv               =              1
    GGA                 =           TRUE
    Meta                =           TRUE

    Exchange Hybrid     =           TRUE
    MP2 Hybrid          =          FALSE

   => Exchange-Correlation Functionals <=

    1.0000   wB97M-V exchange-correlation functional

   => Exact (HF) Exchange <=

    0.8500            HF,LR [omega = 0.3000]
    0.1500               HF 

   => VV10 Non-Local Parameters <=

    VV10 B              =     6.0000E+00
    VV10 C              =     1.0000E-02

   => Molecular Quadrature <=

    Radial Scheme          =       TREUTLER
    Pruning Scheme         =           NONE
    Nuclear Scheme         =       TREUTLER

    BS radius alpha        =              1
    Pruning alpha          =              1
    Radial Points          =             99
    Spherical Points       =            590
    Total Points           =         113384
    Total Blocks           =            986
    Max Points             =            255
    Max Functions          =            100
    Weights Tolerance      =       1.00E-15

   => Loading Basis Set <=

    Name: (AUG-CC-PVTZ AUX)
    Role: JKFIT
    Keyword: DF_BASIS_SCF
    atoms 1-2 entry S          line   730 file /apps/gb/PSI4/1.4.0/share/psi4/basis/aug-cc-pvtz-jkfit.gbs 

  ==> Pre-Iterations <==

   -------------------------------------------------------
    Irrep   Nso     Nmo     Nalpha   Nbeta   Ndocc  Nsocc
   -------------------------------------------------------
     Ag        21      21       0       0       0       0
     B1g        5       5       0       0       0       0
     B2g       12      12       0       0       0       0
     B3g       12      12       0       0       0       0
     Au         5       5       0       0       0       0
     B1u       21      21       0       0       0       0
     B2u       12      12       0       0       0       0
     B3u       12      12       0       0       0       0
   -------------------------------------------------------
    Total     100     100      17      16      16       1
   -------------------------------------------------------

  ==> Integral Setup <==

  ==> DiskDFJK: Density-Fitted J/K Matrices <==

    J tasked:                  Yes
    K tasked:                  Yes
    wK tasked:                 Yes
    Omega:               3.000E-01
    OpenMP threads:              1
    Integrals threads:           1
    Memory [MiB]:             6378
    Algorithm:                Core
    Integral Cache:           NONE
    Schwarz Cutoff:          1E-12
    Fitting Condition:       1E-10

   => Auxiliary Basis Set <=

  Basis Set: (AUG-CC-PVTZ AUX)
    Blend: AUG-CC-PVTZ-JKFIT
    Number of shells: 84
    Number of basis function: 292
    Number of Cartesian functions: 360
    Spherical Harmonics?: true
    Max angular momentum: 4

  Cached 100.0% of DFT collocation blocks in 0.756 [GiB].

  Minimum eigenvalue in the overlap matrix is 2.7190206739E-04.
  Using Symmetric Orthogonalization.

  SCF Guess: Superposition of Atomic Densities via on-the-fly atomic UHF.

  ==> Iterations <==

                           Total Energy        Delta E     RMS |[F,P]|

   @DF-UKS iter SAD:  -795.86916376921477   -7.95869e+02   0.00000e+00 
   @DF-UKS iter   1:  -796.34942013114801   -4.80256e-01   9.34689e-03 DIIS
   @DF-UKS iter   2:  -796.40485110665759   -5.54310e-02   5.42509e-03 DIIS
   @DF-UKS iter   3:  -796.42218044258152   -1.73293e-02   6.04144e-04 DIIS
   @DF-UKS iter   4:  -796.42255752948188   -3.77087e-04   1.98833e-04 DIIS
   @DF-UKS iter   5:  -796.42263240096986   -7.48715e-05   3.13002e-05 DIIS
   @DF-UKS iter   6:  -796.42263525733620   -2.85637e-06   5.58425e-06 DIIS
   @DF-UKS iter   7:  -796.42263538133614   -1.24000e-07   8.86096e-07 DIIS
   @DF-UKS iter   8:  -796.42263538459520   -3.25906e-09   1.67970e-07 DIIS
   @DF-UKS iter   9:  -796.42263538470172   -1.06525e-10   2.47572e-08 DIIS
   @DF-UKS iter  10:  -796.42263538470365   -1.93268e-12   4.75217e-09 DIIS
  Energy and wave function converged.


  ==> Post-Iterations <==

   @Spin Contamination Metric:   4.660065156E-03
   @S^2 Expected:                7.500000000E-01
   @S^2 Observed:                7.546600652E-01
   @S   Expected:                5.000000000E-01
   @S   Observed:                5.000000000E-01

    Orbital Energies [Eh]
    ---------------------

    Alpha Occupied:                                                       

       1B1u  -88.992322     1Ag   -88.992319     2Ag    -7.903701  
       2B1u   -7.903621     1B2u   -5.815072     1B3g   -5.815055  
       3Ag    -5.813466     3B1u   -5.813109     1B3u   -5.805333  
       1B2g   -5.805316     4Ag    -0.673846     4B1u   -0.490077  
       5Ag    -0.231608     2B2u   -0.217783     2B3u   -0.199929  
       2B3g   -0.093185     2B2g   -0.074101  

    Alpha Virtual:                                                        

       5B1u    0.154129     6Ag     0.205016     3B2u    0.212405  
       3B3u    0.216885     3B3g    0.227293     3B2g    0.231141  
       7Ag     0.256393     6B1u    0.281098     7B1u    0.361701  
       1B1g    0.387751     8Ag     0.387899     4B2u    0.434018  
       4B3u    0.441779     9Ag     0.460792     1Au     0.481024  
       8B1u    0.481195     4B3g    0.530068     9B1u    0.530220  
       4B2g    0.532991     5B2u    0.655453     5B3u    0.667282  
      10B1u    0.742479    10Ag     0.751453     5B3g    0.759975  
       6B2u    0.764269     5B2g    0.769945     6B3u    0.776255  
      11Ag     0.777251     2B1g    0.804044    12Ag     0.804841  
      13Ag     0.879395    11B1u    0.887929     2Au     0.888086  
       7B3u    0.922898     7B2u    0.922911     6B3g    0.952696  
       6B2g    0.966159     3B1g    0.989376    14Ag     0.990048  
       7B2g    1.060694     7B3g    1.060706    12B1u    1.063251  
       8B2u    1.211044     8B3u    1.222839    13B1u    1.246312  
       3Au     1.248465    14B1u    1.266109     8B3g    1.408637  
       8B2g    1.421391    15Ag     1.487783    15B1u    1.646456  
      16Ag     1.998981     4B1g    1.999044    16B1u    2.051807  
       9B2u    2.054489     4Au     2.071163     9B3u    2.072091  
      17B1u    2.074232     9B3g    2.174389    17Ag     2.177462  
       9B2g    2.198881    10B2u    2.235694    10B3u    2.251798  
      18Ag     2.281977     5B1g    2.283239    19Ag     2.296789  
      11B2u    2.302676    11B3u    2.327887    12B2u    2.332352  
      12B3u    2.333362    10B3g    2.390164    10B2g    2.390221  
      18B1u    2.519243     5Au     2.520125    11B3g    2.524425  
      11B2g    2.545153    19B1u    2.644582    20Ag     2.747383  
      12B3g    2.818300    12B2g    2.837924    20B1u    3.886246  
      21Ag     4.713108    21B1u    5.534746  

    Beta Occupied:                                                        

       1B1u  -88.989438     1Ag   -88.989436     2Ag    -7.900808  
       2B1u   -7.900697     3Ag    -5.811654     3B1u   -5.811297  
       1B2u   -5.804655     1B3g   -5.804628     1B3u   -5.803264  
       1B2g   -5.803246     4Ag    -0.660664     4B1u   -0.463673  
       5Ag    -0.219801     2B3u   -0.192767     2B2u   -0.168625  
       2B2g   -0.064574  

    Beta Virtual:                                                         

       2B3g    0.150902     5B1u    0.153287     6Ag     0.203978  
       3B2u    0.212469     3B3u    0.218082     3B2g    0.232198  
       3B3g    0.234092     7Ag     0.258723     6B1u    0.286004  
       7B1u    0.364680     8Ag     0.390755     1B1g    0.391520  
       4B3u    0.443523     4B2u    0.446585     9Ag     0.462299  
       8B1u    0.483148     1Au     0.484873     4B3g    0.530121  
       9B1u    0.531856     4B2g    0.533692     5B2u    0.665154  
       5B3u    0.669995    10B1u    0.747222    10Ag     0.752587  
       5B3g    0.766448     5B2g    0.771290     6B2u    0.780054  
       6B3u    0.780861    11Ag     0.782583     2B1g    0.813497  
      12Ag     0.814040    13Ag     0.887807     2Au     0.905036  
      11B1u    0.905400     7B2u    0.926294     7B3u    0.926540  
       6B3g    0.969458     6B2g    0.970942     3B1g    0.996802  
      14Ag     0.996876     7B3g    1.065489     7B2g    1.065851  
      12B1u    1.070961     8B2u    1.218837     8B3u    1.223432  
      13B1u    1.251319     3Au     1.253104    14B1u    1.268422  
       8B3g    1.420462     8B2g    1.423165    15Ag     1.501808  
      15B1u    1.663378     4B1g    2.026828    16Ag     2.027393  
      16B1u    2.063196     9B2u    2.074113     9B3u    2.074181  
       4Au     2.098410    17B1u    2.099178    17Ag     2.183626  
       9B2g    2.206940     9B3g    2.214556    10B2u    2.254919  
      10B3u    2.255281    18Ag     2.297550     5B1g    2.298446  
      19Ag     2.304302    11B3u    2.339783    11B2u    2.349195  
      12B3u    2.357563    12B2u    2.358250    10B2g    2.415237  
      10B3g    2.415793    18B1u    2.536248     5Au     2.537154  
      11B2g    2.550120    11B3g    2.551926    19B1u    2.654402  
      20Ag     2.755930    12B2g    2.842328    12B3g    2.843676  
      20B1u    3.891092    21Ag     4.726496    21B1u    5.546005  

    Final Occupation by Irrep:
             Ag   B1g   B2g   B3g    Au   B1u   B2u   B3u 
    DOCC [     5,    0,    2,    1,    0,    4,    2,    2 ]
    SOCC [     0,    0,    0,    1,    0,    0,    0,    0 ]

  @DF-UKS Final Energy:  -796.42263538470365

   => Energetics <=

    Nuclear Repulsion Energy =             67.7346829657599301
    One-Electron Energy =               -1242.4767743320753652
    Two-Electron Energy =                 417.8366249449988459
    DFT Exchange-Correlation Energy =     -39.6533829687276693
    Empirical Dispersion Energy =           0.0000000000000000
    VV10 Nonlocal Energy =                  0.1362140053406270
    Total Energy =                       -796.4226353847035398

  UHF NO Occupations:
  HONO-2 :    4B1u 1.9997679
  HONO-1 :    2B2u 1.9982387
  HONO-0 :    2B3g 1.0000000
  LUNO+0 :    3B2u 0.0017613
  LUNO+1 :    5B1u 0.0002321
  LUNO+2 :    6 Ag 0.0001437
  LUNO+3 :    3B2g 0.0001250


Computation Completed


Properties will be evaluated at   0.000000,   0.000000,   0.000000 [a0]

Properties computed using the SCF density matrix

  Nuclear Dipole Moment: [e a0]
     X:     0.0000      Y:     0.0000      Z:     0.0000

  Electronic Dipole Moment: [e a0]
     X:     0.0000      Y:     0.0000      Z:     0.0000

  Dipole Moment: [e a0]
     X:     0.0000      Y:     0.0000      Z:     0.0000     Total:     0.0000

  Dipole Moment: [D]
     X:     0.0000      Y:     0.0000      Z:     0.0000     Total:     0.0000


*** tstop() called on c1-9.compute.lan at Tue Feb  2 11:29:11 2021
Module time:
	user time   =      28.69 seconds =       0.48 minutes
	system time =       0.57 seconds =       0.01 minutes
	total time  =         29 seconds =       0.48 minutes
Total time:
	user time   =      28.69 seconds =       0.48 minutes
	system time =       0.57 seconds =       0.01 minutes
	total time  =         29 seconds =       0.48 minutes

  //>>>>>>>>>>>>>>>>>>>>>>>>>>>>>>>>>>>//
  //    Loading displacement 2 of 3    //
  //<<<<<<<<<<<<<<<<<<<<<<<<<<<<<<<<<<<//

*** tstart() called on c1-9.compute.lan
*** at Tue Feb  2 11:29:11 2021

   => Loading Basis Set <=

    Name: AUG-CC-PVTZ
    Role: ORBITAL
    Keyword: BASIS
    atoms 1-2 entry S          line   906 file /apps/gb/PSI4/1.4.0/share/psi4/basis/aug-cc-pvtz.gbs 


         ---------------------------------------------------------
                                   SCF
               by Justin Turney, Rob Parrish, Andy Simmonett
                          and Daniel G. A. Smith
                              UKS Reference
                        1 Threads,   9536 MiB Core
         ---------------------------------------------------------

  ==> Geometry <==

    Molecular point group: d2h
    Full point group: D_inf_h

    Geometry (in Angstrom), charge = -1, multiplicity = 2:

       Center              X                  Y                   Z               Mass       
    ------------   -----------------  -----------------  -----------------  -----------------
         S            0.000000000000     0.000000000000    -1.000330880180    31.972071174400
         S            0.000000000000     0.000000000000     1.000330880180    31.972071174400

  Running in d2h symmetry.

  Rotational constants: A = ************  B =      0.26346  C =      0.26346 [cm^-1]
  Rotational constants: A = ************  B =   7898.21736  C =   7898.21736 [MHz]
  Nuclear repulsion =   67.712278314902932

  Charge       = -1
  Multiplicity = 2
  Electrons    = 33
  Nalpha       = 17
  Nbeta        = 16

  ==> Algorithm <==

  SCF Algorithm Type is DF.
  DIIS enabled.
  MOM disabled.
  Fractional occupation disabled.
  Guess Type is SAD.
  Energy threshold   = 1.00e-08
  Density threshold  = 1.00e-08
  Integral threshold = 0.00e+00

  ==> Primary Basis <==

  Basis Set: AUG-CC-PVTZ
    Blend: AUG-CC-PVTZ
    Number of shells: 32
    Number of basis function: 100
    Number of Cartesian functions: 118
    Spherical Harmonics?: true
    Max angular momentum: 3

  ==> DFT Potential <==

   => Composite Functional: WB97M-V <= 

    wB97M-V Hyb-GGA Exchange-Correlation Functional

    N. Mardirossian and M. Head-Gordon, J. Chem. Phys. 144, 214110 (2016)

    Deriv               =              1
    GGA                 =           TRUE
    Meta                =           TRUE

    Exchange Hybrid     =           TRUE
    MP2 Hybrid          =          FALSE

   => Exchange-Correlation Functionals <=

    1.0000   wB97M-V exchange-correlation functional

   => Exact (HF) Exchange <=

    0.8500            HF,LR [omega = 0.3000]
    0.1500               HF 

   => VV10 Non-Local Parameters <=

    VV10 B              =     6.0000E+00
    VV10 C              =     1.0000E-02

   => Molecular Quadrature <=

    Radial Scheme          =       TREUTLER
    Pruning Scheme         =           NONE
    Nuclear Scheme         =       TREUTLER

    BS radius alpha        =              1
    Pruning alpha          =              1
    Radial Points          =             99
    Spherical Points       =            590
    Total Points           =         113376
    Total Blocks           =            984
    Max Points             =            255
    Max Functions          =            100
    Weights Tolerance      =       1.00E-15

   => Loading Basis Set <=

    Name: (AUG-CC-PVTZ AUX)
    Role: JKFIT
    Keyword: DF_BASIS_SCF
    atoms 1-2 entry S          line   730 file /apps/gb/PSI4/1.4.0/share/psi4/basis/aug-cc-pvtz-jkfit.gbs 

  ==> Pre-Iterations <==

   -------------------------------------------------------
    Irrep   Nso     Nmo     Nalpha   Nbeta   Ndocc  Nsocc
   -------------------------------------------------------
     Ag        21      21       0       0       0       0
     B1g        5       5       0       0       0       0
     B2g       12      12       0       0       0       0
     B3g       12      12       0       0       0       0
     Au         5       5       0       0       0       0
     B1u       21      21       0       0       0       0
     B2u       12      12       0       0       0       0
     B3u       12      12       0       0       0       0
   -------------------------------------------------------
    Total     100     100      17      16      16       1
   -------------------------------------------------------

  ==> Integral Setup <==

  ==> DiskDFJK: Density-Fitted J/K Matrices <==

    J tasked:                  Yes
    K tasked:                  Yes
    wK tasked:                 Yes
    Omega:               3.000E-01
    OpenMP threads:              1
    Integrals threads:           1
    Memory [MiB]:             6378
    Algorithm:                Core
    Integral Cache:           NONE
    Schwarz Cutoff:          1E-12
    Fitting Condition:       1E-10

   => Auxiliary Basis Set <=

  Basis Set: (AUG-CC-PVTZ AUX)
    Blend: AUG-CC-PVTZ-JKFIT
    Number of shells: 84
    Number of basis function: 292
    Number of Cartesian functions: 360
    Spherical Harmonics?: true
    Max angular momentum: 4

  Cached 100.0% of DFT collocation blocks in 0.756 [GiB].

  Minimum eigenvalue in the overlap matrix is 2.7231679894E-04.
  Using Symmetric Orthogonalization.

  SCF Guess: Superposition of Atomic Densities via on-the-fly atomic UHF.

  ==> Iterations <==

                           Total Energy        Delta E     RMS |[F,P]|

   @DF-UKS iter SAD:  -795.86832931933156   -7.95868e+02   0.00000e+00 
   @DF-UKS iter   1:  -796.34945125597449   -4.81122e-01   9.34531e-03 DIIS
   @DF-UKS iter   2:  -796.40486893066566   -5.54177e-02   5.42322e-03 DIIS
   @DF-UKS iter   3:  -796.42218408771930   -1.73152e-02   6.03835e-04 DIIS
   @DF-UKS iter   4:  -796.42256086500822   -3.76777e-04   1.98804e-04 DIIS
   @DF-UKS iter   5:  -796.42263570050807   -7.48355e-05   3.13020e-05 DIIS
   @DF-UKS iter   6:  -796.42263855604563   -2.85554e-06   5.58344e-06 DIIS
   @DF-UKS iter   7:  -796.42263867997553   -1.23930e-07   8.86002e-07 DIIS
   @DF-UKS iter   8:  -796.42263868323244   -3.25690e-09   1.67976e-07 DIIS
   @DF-UKS iter   9:  -796.42263868333885   -1.06411e-10   2.47733e-08 DIIS
   @DF-UKS iter  10:  -796.42263868334089   -2.04636e-12   4.76101e-09 DIIS
  Energy and wave function converged.


  ==> Post-Iterations <==

   @Spin Contamination Metric:   4.662984818E-03
   @S^2 Expected:                7.500000000E-01
   @S^2 Observed:                7.546629848E-01
   @S   Expected:                5.000000000E-01
   @S   Observed:                5.000000000E-01

    Orbital Energies [Eh]
    ---------------------

    Alpha Occupied:                                                       

       1B1u  -88.992370     1Ag   -88.992367     2Ag    -7.903736  
       2B1u   -7.903656     1B2u   -5.815107     1B3g   -5.815091  
       3Ag    -5.813503     3B1u   -5.813147     1B3u   -5.805368  
       1B2g   -5.805351     4Ag    -0.673706     4B1u   -0.490152  
       5Ag    -0.231567     2B2u   -0.217722     2B3u   -0.199867  
       2B3g   -0.093255     2B2g   -0.074171  

    Alpha Virtual:                                                        

       5B1u    0.154121     6Ag     0.205014     3B2u    0.212407  
       3B3u    0.216888     3B3g    0.227288     3B2g    0.231134  
       7Ag     0.256399     6B1u    0.280974     7B1u    0.361641  
       1B1g    0.387753     8Ag     0.387902     4B2u    0.433989  
       4B3u    0.441752     9Ag     0.460831     1Au     0.480997  
       8B1u    0.481167     4B3g    0.530062     9B1u    0.530130  
       4B2g    0.532987     5B2u    0.655474     5B3u    0.667302  
      10B1u    0.742502    10Ag     0.751522     5B3g    0.759955  
       6B2u    0.764269     5B2g    0.769926     6B3u    0.776254  
      11Ag     0.777288     2B1g    0.804088    12Ag     0.804884  
      13Ag     0.879253    11B1u    0.887891     2Au     0.888047  
       7B3u    0.922915     7B2u    0.922927     6B3g    0.952584  
       6B2g    0.966047     3B1g    0.989280    14Ag     0.989952  
       7B2g    1.060637     7B3g    1.060649    12B1u    1.063031  
       8B2u    1.210916     8B3u    1.222710    13B1u    1.246179  
       3Au     1.248356    14B1u    1.265842     8B3g    1.408532  
       8B2g    1.421284    15Ag     1.487532    15B1u    1.646455  
      16Ag     1.998951     4B1g    1.999014    16B1u    2.051902  
       9B2u    2.054586     4Au     2.071108     9B3u    2.072194  
      17B1u    2.074194     9B3g    2.174474    17Ag     2.177623  
       9B2g    2.198965    10B2u    2.235543    10B3u    2.251637  
      18Ag     2.282163     5B1g    2.283429    19Ag     2.296953  
      11B2u    2.302637    11B3u    2.327860    12B2u    2.332376  
      12B3u    2.333378    10B3g    2.390113    10B2g    2.390170  
      18B1u    2.519002     5Au     2.519885    11B3g    2.524037  
      11B2g    2.544767    19B1u    2.644229    20Ag     2.746263  
      12B3g    2.817825    12B2g    2.837445    20B1u    3.885911  
      21Ag     4.712067    21B1u    5.534399  

    Beta Occupied:                                                        

       1B1u  -88.989486     1Ag   -88.989483     2Ag    -7.900842  
       2B1u   -7.900732     3Ag    -5.811690     3B1u   -5.811335  
       1B2u   -5.804690     1B3g   -5.804663     1B3u   -5.803298  
       1B2g   -5.803281     4Ag    -0.660517     4B1u   -0.463749  
       5Ag    -0.219763     2B3u   -0.192704     2B2u   -0.168544  
       2B2g   -0.064645  

    Beta Virtual:                                                         

       2B3g    0.150839     5B1u    0.153280     6Ag     0.203977  
       3B2u    0.212478     3B3u    0.218086     3B2g    0.232191  
       3B3g    0.234079     7Ag     0.258732     6B1u    0.285892  
       7B1u    0.364611     8Ag     0.390758     1B1g    0.391523  
       4B3u    0.443496     4B2u    0.446554     9Ag     0.462340  
       8B1u    0.483125     1Au     0.484847     4B3g    0.530120  
       9B1u    0.531765     4B2g    0.533689     5B2u    0.665179  
       5B3u    0.670016    10B1u    0.747244    10Ag     0.752646  
       5B3g    0.766430     5B2g    0.771272     6B2u    0.780048  
       6B3u    0.780859    11Ag     0.782631     2B1g    0.813544  
      12Ag     0.814087    13Ag     0.887665     2Au     0.904997  
      11B1u    0.905361     7B2u    0.926310     7B3u    0.926556  
       6B3g    0.969347     6B2g    0.970831     3B1g    0.996704  
      14Ag     0.996778     7B3g    1.065431     7B2g    1.065793  
      12B1u    1.070743     8B2u    1.218707     8B3u    1.223303  
      13B1u    1.251193     3Au     1.252992    14B1u    1.268140  
       8B3g    1.420350     8B2g    1.423055    15Ag     1.501544  
      15B1u    1.663391     4B1g    2.026801    16Ag     2.027365  
      16B1u    2.063297     9B2u    2.074235     9B3u    2.074287  
       4Au     2.098357    17B1u    2.099126    17Ag     2.183789  
       9B2g    2.207022     9B3g    2.214635    10B2u    2.254744  
      10B3u    2.255114    18Ag     2.297743     5B1g    2.298640  
      19Ag     2.304464    11B3u    2.339752    11B2u    2.349166  
      12B3u    2.357590    12B2u    2.358276    10B2g    2.415189  
      10B3g    2.415744    18B1u    2.536007     5Au     2.536913  
      11B2g    2.549736    11B3g    2.551545    19B1u    2.654046  
      20Ag     2.754809    12B2g    2.841848    12B3g    2.843193  
      20B1u    3.890752    21Ag     4.725457    21B1u    5.545660  

    Final Occupation by Irrep:
             Ag   B1g   B2g   B3g    Au   B1u   B2u   B3u 
    DOCC [     5,    0,    2,    1,    0,    4,    2,    2 ]
    SOCC [     0,    0,    0,    1,    0,    0,    0,    0 ]

  @DF-UKS Final Energy:  -796.42263868334089

   => Energetics <=

    Nuclear Repulsion Energy =             67.7122783149029317
    One-Electron Energy =               -1242.4315986096730740
    Two-Electron Energy =                 417.8136496806544642
    DFT Exchange-Correlation Energy =     -39.6531830641593643
    Empirical Dispersion Energy =           0.0000000000000000
    VV10 Nonlocal Energy =                  0.1362149949340625
    Total Energy =                       -796.4226386833410061

  UHF NO Occupations:
  HONO-2 :    4B1u 1.9997680
  HONO-1 :    2B2u 1.9982371
  HONO-0 :    2B3g 1.0000000
  LUNO+0 :    3B2u 0.0017629
  LUNO+1 :    5B1u 0.0002320
  LUNO+2 :    6 Ag 0.0001437
  LUNO+3 :    3B2g 0.0001249


Computation Completed


Properties will be evaluated at   0.000000,   0.000000,   0.000000 [a0]

Properties computed using the SCF density matrix

  Nuclear Dipole Moment: [e a0]
     X:     0.0000      Y:     0.0000      Z:     0.0000

  Electronic Dipole Moment: [e a0]
     X:     0.0000      Y:     0.0000      Z:     0.0000

  Dipole Moment: [e a0]
     X:     0.0000      Y:     0.0000      Z:     0.0000     Total:     0.0000

  Dipole Moment: [D]
     X:     0.0000      Y:     0.0000      Z:     0.0000     Total:     0.0000


*** tstop() called on c1-9.compute.lan at Tue Feb  2 11:29:40 2021
Module time:
	user time   =      28.78 seconds =       0.48 minutes
	system time =       0.25 seconds =       0.00 minutes
	total time  =         29 seconds =       0.48 minutes
Total time:
	user time   =      57.47 seconds =       0.96 minutes
	system time =       0.83 seconds =       0.01 minutes
	total time  =         58 seconds =       0.97 minutes

  //>>>>>>>>>>>>>>>>>>>>>>>>>>>>>>>>>>>//
  //    Loading displacement 3 of 3    //
  //<<<<<<<<<<<<<<<<<<<<<<<<<<<<<<<<<<<//

*** tstart() called on c1-9.compute.lan
*** at Tue Feb  2 11:29:40 2021

   => Loading Basis Set <=

    Name: AUG-CC-PVTZ
    Role: ORBITAL
    Keyword: BASIS
    atoms 1-2 entry S          line   906 file /apps/gb/PSI4/1.4.0/share/psi4/basis/aug-cc-pvtz.gbs 


         ---------------------------------------------------------
                                   SCF
               by Justin Turney, Rob Parrish, Andy Simmonett
                          and Daniel G. A. Smith
                              UKS Reference
                        1 Threads,   9536 MiB Core
         ---------------------------------------------------------

  ==> Geometry <==

    Molecular point group: d2h
    Full point group: D_inf_h

    Geometry (in Angstrom), charge = -1, multiplicity = 2:

       Center              X                  Y                   Z               Mass       
    ------------   -----------------  -----------------  -----------------  -----------------
         S            0.000000000000     0.000000000000    -0.999669119820    31.972071174400
         S            0.000000000000     0.000000000000     0.999669119820    31.972071174400

  Running in d2h symmetry.

  Rotational constants: A = ************  B =      0.26381  C =      0.26381 [cm^-1]
  Rotational constants: A = ************  B =   7908.67773  C =   7908.67773 [MHz]
  Nuclear repulsion =   67.757102448034203

  Charge       = -1
  Multiplicity = 2
  Electrons    = 33
  Nalpha       = 17
  Nbeta        = 16

  ==> Algorithm <==

  SCF Algorithm Type is DF.
  DIIS enabled.
  MOM disabled.
  Fractional occupation disabled.
  Guess Type is SAD.
  Energy threshold   = 1.00e-08
  Density threshold  = 1.00e-08
  Integral threshold = 0.00e+00

  ==> Primary Basis <==

  Basis Set: AUG-CC-PVTZ
    Blend: AUG-CC-PVTZ
    Number of shells: 32
    Number of basis function: 100
    Number of Cartesian functions: 118
    Spherical Harmonics?: true
    Max angular momentum: 3

  ==> DFT Potential <==

   => Composite Functional: WB97M-V <= 

    wB97M-V Hyb-GGA Exchange-Correlation Functional

    N. Mardirossian and M. Head-Gordon, J. Chem. Phys. 144, 214110 (2016)

    Deriv               =              1
    GGA                 =           TRUE
    Meta                =           TRUE

    Exchange Hybrid     =           TRUE
    MP2 Hybrid          =          FALSE

   => Exchange-Correlation Functionals <=

    1.0000   wB97M-V exchange-correlation functional

   => Exact (HF) Exchange <=

    0.8500            HF,LR [omega = 0.3000]
    0.1500               HF 

   => VV10 Non-Local Parameters <=

    VV10 B              =     6.0000E+00
    VV10 C              =     1.0000E-02

   => Molecular Quadrature <=

    Radial Scheme          =       TREUTLER
    Pruning Scheme         =           NONE
    Nuclear Scheme         =       TREUTLER

    BS radius alpha        =              1
    Pruning alpha          =              1
    Radial Points          =             99
    Spherical Points       =            590
    Total Points           =         113368
    Total Blocks           =            984
    Max Points             =            255
    Max Functions          =            100
    Weights Tolerance      =       1.00E-15

   => Loading Basis Set <=

    Name: (AUG-CC-PVTZ AUX)
    Role: JKFIT
    Keyword: DF_BASIS_SCF
    atoms 1-2 entry S          line   730 file /apps/gb/PSI4/1.4.0/share/psi4/basis/aug-cc-pvtz-jkfit.gbs 

  ==> Pre-Iterations <==

   -------------------------------------------------------
    Irrep   Nso     Nmo     Nalpha   Nbeta   Ndocc  Nsocc
   -------------------------------------------------------
     Ag        21      21       0       0       0       0
     B1g        5       5       0       0       0       0
     B2g       12      12       0       0       0       0
     B3g       12      12       0       0       0       0
     Au         5       5       0       0       0       0
     B1u       21      21       0       0       0       0
     B2u       12      12       0       0       0       0
     B3u       12      12       0       0       0       0
   -------------------------------------------------------
    Total     100     100      17      16      16       1
   -------------------------------------------------------

  ==> Integral Setup <==

  ==> DiskDFJK: Density-Fitted J/K Matrices <==

    J tasked:                  Yes
    K tasked:                  Yes
    wK tasked:                 Yes
    Omega:               3.000E-01
    OpenMP threads:              1
    Integrals threads:           1
    Memory [MiB]:             6378
    Algorithm:                Core
    Integral Cache:           NONE
    Schwarz Cutoff:          1E-12
    Fitting Condition:       1E-10

   => Auxiliary Basis Set <=

  Basis Set: (AUG-CC-PVTZ AUX)
    Blend: AUG-CC-PVTZ-JKFIT
    Number of shells: 84
    Number of basis function: 292
    Number of Cartesian functions: 360
    Spherical Harmonics?: true
    Max angular momentum: 4

  Cached 100.0% of DFT collocation blocks in 0.756 [GiB].

  Minimum eigenvalue in the overlap matrix is 2.7148790077E-04.
  Using Symmetric Orthogonalization.

  SCF Guess: Superposition of Atomic Densities via on-the-fly atomic UHF.

  ==> Iterations <==

                           Total Energy        Delta E     RMS |[F,P]|

   @DF-UKS iter SAD:  -795.86999927646309   -7.95870e+02   0.00000e+00 
   @DF-UKS iter   1:  -796.34938858793510   -4.79389e-01   9.34847e-03 DIIS
   @DF-UKS iter   2:  -796.40483288151677   -5.54443e-02   5.42696e-03 DIIS
   @DF-UKS iter   3:  -796.42217643660683   -1.73436e-02   6.04454e-04 DIIS
   @DF-UKS iter   4:  -796.42255383329382   -3.77397e-04   1.98862e-04 DIIS
   @DF-UKS iter   5:  -796.42262874075345   -7.49075e-05   3.12983e-05 DIIS
   @DF-UKS iter   6:  -796.42263159795084   -2.85720e-06   5.58505e-06 DIIS
   @DF-UKS iter   7:  -796.42263172202115   -1.24070e-07   8.86190e-07 DIIS
   @DF-UKS iter   8:  -796.42263172528260   -3.26145e-09   1.67964e-07 DIIS
   @DF-UKS iter   9:  -796.42263172538981   -1.07207e-10   2.47412e-08 DIIS
   @DF-UKS iter  10:  -796.42263172539140   -1.59162e-12   4.74330e-09 DIIS
  Energy and wave function converged.


  ==> Post-Iterations <==

   @Spin Contamination Metric:   4.657147300E-03
   @S^2 Expected:                7.500000000E-01
   @S^2 Observed:                7.546571473E-01
   @S   Expected:                5.000000000E-01
   @S   Observed:                5.000000000E-01

    Orbital Energies [Eh]
    ---------------------

    Alpha Occupied:                                                       

       1B1u  -88.992274     1Ag   -88.992271     2Ag    -7.903667  
       2B1u   -7.903586     1B2u   -5.815036     1B3g   -5.815019  
       3Ag    -5.813430     3B1u   -5.813071     1B3u   -5.805298  
       1B2g   -5.805281     4Ag    -0.673985     4B1u   -0.490002  
       5Ag    -0.231649     2B2u   -0.217845     2B3u   -0.199991  
       2B3g   -0.093114     2B2g   -0.074030  

    Alpha Virtual:                                                        

       5B1u    0.154137     6Ag     0.205018     3B2u    0.212402  
       3B3u    0.216882     3B3g    0.227299     3B2g    0.231147  
       7Ag     0.256387     6B1u    0.281222     7B1u    0.361761  
       1B1g    0.387748     8Ag     0.387897     4B2u    0.434047  
       4B3u    0.441807     9Ag     0.460753     1Au     0.481052  
       8B1u    0.481223     4B3g    0.530075     9B1u    0.530311  
       4B2g    0.532994     5B2u    0.655433     5B3u    0.667262  
      10B1u    0.742456    10Ag     0.751384     5B3g    0.759996  
       6B2u    0.764270     5B2g    0.769964     6B3u    0.776256  
      11Ag     0.777215     2B1g    0.804000    12Ag     0.804799  
      13Ag     0.879537    11B1u    0.887968     2Au     0.888124  
       7B3u    0.922881     7B2u    0.922894     6B3g    0.952807  
       6B2g    0.966271     3B1g    0.989471    14Ag     0.990144  
       7B2g    1.060751     7B3g    1.060763    12B1u    1.063471  
       8B2u    1.211172     8B3u    1.222968    13B1u    1.246445  
       3Au     1.248574    14B1u    1.266377     8B3g    1.408742  
       8B2g    1.421499    15Ag     1.488033    15B1u    1.646455  
      16Ag     1.999012     4B1g    1.999074    16B1u    2.051712  
       9B2u    2.054392     4Au     2.071218     9B3u    2.071987  
      17B1u    2.074270     9B3g    2.174304    17Ag     2.177301  
       9B2g    2.198797    10B2u    2.235847    10B3u    2.251960  
      18Ag     2.281792     5B1g    2.283050    19Ag     2.296624  
      11B2u    2.302716    11B3u    2.327913    12B2u    2.332328  
      12B3u    2.333346    10B3g    2.390215    10B2g    2.390272  
      18B1u    2.519484     5Au     2.520364    11B3g    2.524813  
      11B2g    2.545539    19B1u    2.644936    20Ag     2.748503  
      12B3g    2.818775    12B2g    2.838403    20B1u    3.886577  
      21Ag     4.714151    21B1u    5.535096  

    Beta Occupied:                                                        

       1B1u  -88.989390     1Ag   -88.989388     2Ag    -7.900773  
       2B1u   -7.900662     3Ag    -5.811617     3B1u   -5.811259  
       1B2u   -5.804621     1B3g   -5.804593     1B3u   -5.803229  
       1B2g   -5.803211     4Ag    -0.660810     4B1u   -0.463597  
       5Ag    -0.219839     2B3u   -0.192830     2B2u   -0.168707  
       2B2g   -0.064504  

    Beta Virtual:                                                         

       2B3g    0.150964     5B1u    0.153293     6Ag     0.203978  
       3B2u    0.212459     3B3u    0.218078     3B2g    0.232205  
       3B3g    0.234104     7Ag     0.258714     6B1u    0.286115  
       7B1u    0.364748     8Ag     0.390752     1B1g    0.391517  
       4B3u    0.443550     4B2u    0.446616     9Ag     0.462258  
       8B1u    0.483172     1Au     0.484898     4B3g    0.530122  
       9B1u    0.531948     4B2g    0.533695     5B2u    0.665129  
       5B3u    0.669974    10B1u    0.747201    10Ag     0.752527  
       5B3g    0.766465     5B2g    0.771308     6B2u    0.780059  
       6B3u    0.780864    11Ag     0.782534     2B1g    0.813450  
      12Ag     0.813993    13Ag     0.887949     2Au     0.905074  
      11B1u    0.905438     7B2u    0.926278     7B3u    0.926525  
       6B3g    0.969569     6B2g    0.971052     3B1g    0.996900  
      14Ag     0.996974     7B3g    1.065547     7B2g    1.065909  
      12B1u    1.071178     8B2u    1.218967     8B3u    1.223560  
      13B1u    1.251444     3Au     1.253217    14B1u    1.268705  
       8B3g    1.420573     8B2g    1.423275    15Ag     1.502072  
      15B1u    1.663364     4B1g    2.026855    16Ag     2.027420  
      16B1u    2.063096     9B2u    2.073991     9B3u    2.074073  
       4Au     2.098462    17B1u    2.099231    17Ag     2.183464  
       9B2g    2.206858     9B3g    2.214477    10B2u    2.255095  
      10B3u    2.255449    18Ag     2.297356     5B1g    2.298253  
      19Ag     2.304140    11B3u    2.339815    11B2u    2.349224  
      12B3u    2.357536    12B2u    2.358224    10B2g    2.415286  
      10B3g    2.415841    18B1u    2.536490     5Au     2.537396  
      11B2g    2.550505    11B3g    2.552307    19B1u    2.654758  
      20Ag     2.757051    12B2g    2.842808    12B3g    2.844159  
      20B1u    3.891427    21Ag     4.727538    21B1u    5.546354  

    Final Occupation by Irrep:
             Ag   B1g   B2g   B3g    Au   B1u   B2u   B3u 
    DOCC [     5,    0,    2,    1,    0,    4,    2,    2 ]
    SOCC [     0,    0,    0,    1,    0,    0,    0,    0 ]

  @DF-UKS Final Energy:  -796.42263172539140

   => Energetics <=

    Nuclear Repulsion Energy =             67.7571024480342032
    One-Electron Energy =               -1242.5219783500065205
    Two-Electron Energy =                 417.8596142735312355
    DFT Exchange-Correlation Energy =     -39.6535831128227798
    Empirical Dispersion Energy =           0.0000000000000000
    VV10 Nonlocal Energy =                  0.1362130158724781
    Total Energy =                       -796.4226317253913976

  UHF NO Occupations:
  HONO-2 :    4B1u 1.9997679
  HONO-1 :    2B2u 1.9982402
  HONO-0 :    2B3g 1.0000000
  LUNO+0 :    3B2u 0.0017598
  LUNO+1 :    5B1u 0.0002321
  LUNO+2 :    6 Ag 0.0001437
  LUNO+3 :    3B2g 0.0001252


Computation Completed


Properties will be evaluated at   0.000000,   0.000000,   0.000000 [a0]

Properties computed using the SCF density matrix

  Nuclear Dipole Moment: [e a0]
     X:     0.0000      Y:     0.0000      Z:     0.0000

  Electronic Dipole Moment: [e a0]
     X:     0.0000      Y:     0.0000      Z:     0.0000

  Dipole Moment: [e a0]
     X:     0.0000      Y:     0.0000      Z:     0.0000     Total:     0.0000

  Dipole Moment: [D]
     X:     0.0000      Y:     0.0000      Z:     0.0000     Total:     0.0000


*** tstop() called on c1-9.compute.lan at Tue Feb  2 11:30:09 2021
Module time:
	user time   =      28.72 seconds =       0.48 minutes
	system time =       0.21 seconds =       0.00 minutes
	total time  =         29 seconds =       0.48 minutes
Total time:
	user time   =      86.20 seconds =       1.44 minutes
	system time =       1.04 seconds =       0.02 minutes
	total time  =         87 seconds =       1.45 minutes

         ----------------------------------------------------------
                                   FINDIF
                     R. A. King and Jonathon Misiewicz
         ---------------------------------------------------------

  Computing gradient from energies.
    Using 3-point formula.
    Energy without displacement: -796.4226353847
    Check energies below for precision!
    Forces are for mass-weighted, symmetry-adapted cartesians (in au).

     Coord      Energy(-1)        Energy(+1)            Force
        0   -796.4226386833   -796.4226317254      0.0006957949


-------------------------------------------------------------
  ## New Matrix (Symmetry 0) ##
  Irrep: 1 Size: 2 x 3

                 1                   2                   3

    1     0.00000000000000     0.00000000000000     0.00278196498681
    2     0.00000000000000     0.00000000000000    -0.00278196498681




			-----------------------------------------
			 OPTKING 2.0: for geometry optimizations 
			  - R.A. King,  Bethel University        
			-----------------------------------------

	Internal coordinates to be generated automatically.
	Detected frag 1 with atoms:  1 2
	---Fragment 1 Bond Connectivity---
	 1 : 2
	 2 : 1

	---Fragment 1 Geometry and Gradient---
	 S           0.0000000000        0.0000000000       -1.8897261255
	 S           0.0000000000        0.0000000000        1.8897261255
	             0.0000000000        0.0000000000        0.0027819650
	             0.0000000000        0.0000000000       -0.0027819650

	Previous optimization step data not found.  Starting new optimization.

	---Fragment 1 Intrafragment Coordinates---
	 - Coordinate -           - BOHR/RAD -       - ANG/DEG -
	 R(1,2)           =         3.779452	       2.000000

	Current energy   :      -796.4226353847

	Generating empirical Hessian (Schlegel '84) for each fragment.
	Taking RFO optimization step.
	Going to follow RFO solution 1.
	Using RFO vector 1.
	Norm of target step-size    0.00804
	Projected energy change by RFO approximation:         0.0000099641

	Back-transformation to cartesian coordinates...
	Successfully converged to displaced geometry.

	--- Internal Coordinate Step in ANG or DEG, aJ/ANG or AJ/DEG ---
	 ---------------------------------------------------------------------------
	   Coordinate                Previous        Force       Change         New 
	   ----------                --------       ------       ------       ------
	    1 R(1,2)          =      2.000000     0.022920     0.004256     2.004256
	 ---------------------------------------------------------------------------
	Successfully symmetrized geometry.

  ==> Convergence Check <==

  Measures of convergence in internal coordinates in au.
  Criteria marked as inactive (o), active & met (*), and active & unmet ( ).
  --------------------------------------------------------------------------------------------- ~
   Step     Total Energy     Delta E     MAX Force     RMS Force      MAX Disp      RMS Disp    ~
  --------------------------------------------------------------------------------------------- ~
    Convergence Criteria             o    2.00e-06 *    1.00e-06 *    6.00e-06 *    4.00e-06 *  ~
  --------------------------------------------------------------------------------------------- ~
      1    -796.42263538   -7.96e+02 o    2.78e-03      2.78e-03      8.04e-03      8.04e-03    ~
  ---------------------------------------------------------------------------------------------

	Writing optimization data to binary file.
	Structure for next step:
	Cartesian Geometry (in Angstrom)
	    S     0.0000000000   0.0000000000  -1.0021278410
	    S     0.0000000000   0.0000000000   1.0021278410
			--------------------------
			 OPTKING Finished Execution 
			--------------------------

    Structure for next step:
    Molecular point group: d2h
    Full point group: D_inf_h

    Geometry (in Angstrom), charge = -1, multiplicity = 2:

    S       
    S             1          r1

    r1        =    2.0042556899

gradient() will perform gradient computation by finite difference of analytic energies.

         ----------------------------------------------------------
                                   FINDIF
                     R. A. King and Jonathon Misiewicz
         ---------------------------------------------------------

  Using finite-differences of energies to determine gradients.
    Generating geometries for use with 3-point formula.
    Displacement size will be 5.00e-03.
    Number of atoms is 2.
    Number of symmetric SALCs is 1.
    Translations projected? 1. Rotations projected? 1.
    Number of geometries (including reference) is 3.

  //>>>>>>>>>>>>>>>>>>>>>>>>>>>>>>>>>>>//
  //    Loading displacement 1 of 3    //
  //<<<<<<<<<<<<<<<<<<<<<<<<<<<<<<<<<<<//

*** tstart() called on c1-9.compute.lan
*** at Tue Feb  2 11:30:09 2021

   => Loading Basis Set <=

    Name: AUG-CC-PVTZ
    Role: ORBITAL
    Keyword: BASIS
    atoms 1-2 entry S          line   906 file /apps/gb/PSI4/1.4.0/share/psi4/basis/aug-cc-pvtz.gbs 


         ---------------------------------------------------------
                                   SCF
               by Justin Turney, Rob Parrish, Andy Simmonett
                          and Daniel G. A. Smith
                              UKS Reference
                        1 Threads,   9536 MiB Core
         ---------------------------------------------------------

  ==> Geometry <==

    Molecular point group: d2h
    Full point group: D_inf_h

    Geometry (in Angstrom), charge = -1, multiplicity = 2:

       Center              X                  Y                   Z               Mass       
    ------------   -----------------  -----------------  -----------------  -----------------
         S            0.000000000000     0.000000000000    -1.002127844933    31.972071174400
         S            0.000000000000     0.000000000000     1.002127844933    31.972071174400

  Running in d2h symmetry.

  Rotational constants: A = ************  B =      0.26251  C =      0.26251 [cm^-1]
  Rotational constants: A = ************  B =   7869.91739  C =   7869.91739 [MHz]
  Nuclear repulsion =   67.590860096571987

  Charge       = -1
  Multiplicity = 2
  Electrons    = 33
  Nalpha       = 17
  Nbeta        = 16

  ==> Algorithm <==

  SCF Algorithm Type is DF.
  DIIS enabled.
  MOM disabled.
  Fractional occupation disabled.
  Guess Type is READ.
  Energy threshold   = 1.00e-08
  Density threshold  = 1.00e-08
  Integral threshold = 0.00e+00

  ==> Primary Basis <==

  Basis Set: AUG-CC-PVTZ
    Blend: AUG-CC-PVTZ
    Number of shells: 32
    Number of basis function: 100
    Number of Cartesian functions: 118
    Spherical Harmonics?: true
    Max angular momentum: 3

  ==> DFT Potential <==

   => Composite Functional: WB97M-V <= 

    wB97M-V Hyb-GGA Exchange-Correlation Functional

    N. Mardirossian and M. Head-Gordon, J. Chem. Phys. 144, 214110 (2016)

    Deriv               =              1
    GGA                 =           TRUE
    Meta                =           TRUE

    Exchange Hybrid     =           TRUE
    MP2 Hybrid          =          FALSE

   => Exchange-Correlation Functionals <=

    1.0000   wB97M-V exchange-correlation functional

   => Exact (HF) Exchange <=

    0.8500            HF,LR [omega = 0.3000]
    0.1500               HF 

   => VV10 Non-Local Parameters <=

    VV10 B              =     6.0000E+00
    VV10 C              =     1.0000E-02

   => Molecular Quadrature <=

    Radial Scheme          =       TREUTLER
    Pruning Scheme         =           NONE
    Nuclear Scheme         =       TREUTLER

    BS radius alpha        =              1
    Pruning alpha          =              1
    Radial Points          =             99
    Spherical Points       =            590
    Total Points           =         113384
    Total Blocks           =            986
    Max Points             =            255
    Max Functions          =            100
    Weights Tolerance      =       1.00E-15

   => Loading Basis Set <=

    Name: (AUG-CC-PVTZ AUX)
    Role: JKFIT
    Keyword: DF_BASIS_SCF
    atoms 1-2 entry S          line   730 file /apps/gb/PSI4/1.4.0/share/psi4/basis/aug-cc-pvtz-jkfit.gbs 

   => Loading Basis Set <=

    Name: AUG-CC-PVTZ
    Role: ORBITAL
    Keyword: BASIS
    atoms 1-2 entry S          line   906 file /apps/gb/PSI4/1.4.0/share/psi4/basis/aug-cc-pvtz.gbs 

  Reading orbitals from file 180, no projection.

  ==> Pre-Iterations <==

   -------------------------------------------------------
    Irrep   Nso     Nmo     Nalpha   Nbeta   Ndocc  Nsocc
   -------------------------------------------------------
     Ag        21      21       0       0       0       0
     B1g        5       5       0       0       0       0
     B2g       12      12       0       0       0       0
     B3g       12      12       0       0       0       0
     Au         5       5       0       0       0       0
     B1u       21      21       0       0       0       0
     B2u       12      12       0       0       0       0
     B3u       12      12       0       0       0       0
   -------------------------------------------------------
    Total     100     100      17      16      16       1
   -------------------------------------------------------

  ==> Integral Setup <==

  ==> DiskDFJK: Density-Fitted J/K Matrices <==

    J tasked:                  Yes
    K tasked:                  Yes
    wK tasked:                 Yes
    Omega:               3.000E-01
    OpenMP threads:              1
    Integrals threads:           1
    Memory [MiB]:             6378
    Algorithm:                Core
    Integral Cache:           NONE
    Schwarz Cutoff:          1E-12
    Fitting Condition:       1E-10

   => Auxiliary Basis Set <=

  Basis Set: (AUG-CC-PVTZ AUX)
    Blend: AUG-CC-PVTZ-JKFIT
    Number of shells: 84
    Number of basis function: 292
    Number of Cartesian functions: 360
    Spherical Harmonics?: true
    Max angular momentum: 4

  Cached 100.0% of DFT collocation blocks in 0.756 [GiB].

  Minimum eigenvalue in the overlap matrix is 2.7457903738E-04.
  Using Symmetric Orthogonalization.

  SCF Guess: Orbitals guess was supplied from a previous computation.

  ==> Iterations <==

                           Total Energy        Delta E     RMS |[F,P]|

   @DF-UKS iter   0:  -796.42058395406889   -7.96421e+02   2.44002e-04 
   @DF-UKS iter   1:  -796.42264885036229   -2.06490e-03   3.76095e-05 DIIS
   @DF-UKS iter   2:  -796.42264974344721   -8.93085e-07   2.62604e-05 DIIS
   @DF-UKS iter   3:  -796.42265032554110   -5.82094e-07   2.22679e-06 DIIS
   @DF-UKS iter   4:  -796.42265033243530   -6.89420e-09   7.01646e-07 DIIS
   @DF-UKS iter   5:  -796.42265033352692   -1.09162e-09   9.43710e-08 DIIS
   @DF-UKS iter   6:  -796.42265033355761   -3.06954e-11   1.59664e-08 DIIS
   @DF-UKS iter   7:  -796.42265033355852   -9.09495e-13   2.73972e-09 DIIS
  Energy and wave function converged.


  ==> Post-Iterations <==

   @Spin Contamination Metric:   4.678873401E-03
   @S^2 Expected:                7.500000000E-01
   @S^2 Observed:                7.546788734E-01
   @S   Expected:                5.000000000E-01
   @S   Observed:                5.000000000E-01

    Orbital Energies [Eh]
    ---------------------

    Alpha Occupied:                                                       

       1B1u  -88.992631     1Ag   -88.992627     2Ag    -7.903926  
       2B1u   -7.903848     1B2u   -5.815301     1B3g   -5.815285  
       3Ag    -5.813700     3B1u   -5.813353     1B3u   -5.805556  
       1B2g   -5.805540     4Ag    -0.672953     4B1u   -0.490561  
       5Ag    -0.231347     2B2u   -0.217388     2B3u   -0.199534  
       2B3g   -0.093637     2B2g   -0.074552  

    Alpha Virtual:                                                        

       5B1u    0.154076     6Ag     0.205003     3B2u    0.212420  
       3B3u    0.216903     3B3g    0.227259     3B2g    0.231098  
       7Ag     0.256432     6B1u    0.280297     7B1u    0.361319  
       1B1g    0.387766     8Ag     0.387916     4B2u    0.433831  
       4B3u    0.441602     9Ag     0.461043     1Au     0.480846  
       8B1u    0.481015     9B1u    0.529638     4B3g    0.530029  
       4B2g    0.532970     5B2u    0.655585     5B3u    0.667409  
      10B1u    0.742628    10Ag     0.751894     5B3g    0.759841  
       6B2u    0.764266     5B2g    0.769822     6B3u    0.776250  
      11Ag     0.777489     2B1g    0.804326    12Ag     0.805113  
      13Ag     0.878485    11B1u    0.887682     2Au     0.887840  
       7B3u    0.923005     7B2u    0.923017     6B3g    0.951980  
       6B2g    0.965441     3B1g    0.988763    14Ag     0.989432  
       7B2g    1.060327     7B3g    1.060340    12B1u    1.061838  
       8B2u    1.210219     8B3u    1.222011    13B1u    1.245452  
       3Au     1.247765    14B1u    1.264401     8B3g    1.407965  
       8B2g    1.420700    15Ag     1.486171    15B1u    1.646443  
      16Ag     1.998785     4B1g    1.998851    16B1u    2.052423  
       9B2u    2.055092     4Au     2.070812     9B3u    2.072735  
      17B1u    2.073994     9B3g    2.174932    17Ag     2.178502  
       9B2g    2.199419    10B2u    2.234745    10B3u    2.250787  
      18Ag     2.283166     5B1g    2.284456    19Ag     2.297841  
      11B2u    2.302428    11B3u    2.327718    12B2u    2.332505  
      12B3u    2.333467    10B3g    2.389837    10B2g    2.389895  
      18B1u    2.517701     5Au     2.518589    11B3g    2.521939  
      11B2g    2.542679    19B1u    2.642319    20Ag     2.740195  
      12B3g    2.815245    12B2g    2.834846    20B1u    3.884013  
      21Ag     4.706438    21B1u    5.532577  

    Beta Occupied:                                                        

       1B1u  -88.989744     1Ag   -88.989742     2Ag    -7.901030  
       2B1u   -7.900922     3Ag    -5.811886     3B1u   -5.811540  
       1B2u   -5.804878     1B3g   -5.804852     1B3u   -5.803486  
       1B2g   -5.803469     4Ag    -0.659726     4B1u   -0.464163  
       5Ag    -0.219558     2B3u   -0.192364     2B2u   -0.168105  
       2B2g   -0.065027  

    Beta Virtual:                                                         

       2B3g    0.150501     5B1u    0.153245     6Ag     0.203974  
       3B2u    0.212531     3B3u    0.218107     3B2g    0.232152  
       3B3g    0.234011     7Ag     0.258781     6B1u    0.285283  
       7B1u    0.364244     8Ag     0.390776     1B1g    0.391538  
       4B3u    0.443347     4B2u    0.446386     9Ag     0.462559  
       8B1u    0.482997     1Au     0.484709     4B3g    0.530113  
       9B1u    0.531270     4B2g    0.533675     5B2u    0.665313  
       5B3u    0.670128    10B1u    0.747362    10Ag     0.752965  
       5B3g    0.766333     5B2g    0.771171     6B2u    0.780020  
       6B3u    0.780847    11Ag     0.782897     2B1g    0.813800  
      12Ag     0.814341    13Ag     0.886896     2Au     0.904790  
      11B1u    0.905152     7B2u    0.926397     7B3u    0.926643  
       6B3g    0.968747     6B2g    0.970233     3B1g    0.996171  
      14Ag     0.996247     7B3g    1.065117     7B2g    1.065476  
      12B1u    1.069561     8B2u    1.218000     8B3u    1.222603  
      13B1u    1.250506     3Au     1.252383    14B1u    1.266621  
       8B3g    1.419746     8B2g    1.422460    15Ag     1.500109  
      15B1u    1.663450     4B1g    2.026654    16Ag     2.027218  
      16B1u    2.063856     9B3u    2.074847     9B2u    2.074878  
       4Au     2.098073    17B1u    2.098844    17Ag     2.184674  
       9B2g    2.207463     9B3g    2.215060    10B2u    2.253821  
      10B3u    2.254235    18Ag     2.298790     5B1g    2.299687  
      19Ag     2.305338    11B3u    2.339585    11B2u    2.349009  
      12B3u    2.357734    12B2u    2.358416    10B2g    2.414927  
      10B3g    2.415482    18B1u    2.534701     5Au     2.535605  
      11B2g    2.547655    11B3g    2.549485    19B1u    2.652123  
      20Ag     2.748738    12B2g    2.839239    12B3g    2.840572  
      20B1u    3.888830    21Ag     4.719836    21B1u    5.543845  

    Final Occupation by Irrep:
             Ag   B1g   B2g   B3g    Au   B1u   B2u   B3u 
    DOCC [     5,    0,    2,    1,    0,    4,    2,    2 ]
    SOCC [     0,    0,    0,    1,    0,    0,    0,    0 ]

  @DF-UKS Final Energy:  -796.42265033355852

   => Energetics <=

    Nuclear Repulsion Energy =             67.5908600965719870
    One-Electron Energy =               -1242.1867505697671277
    Two-Electron Energy =                 417.6891214626468241
    DFT Exchange-Correlation Energy =     -39.6521016948483123
    Empirical Dispersion Energy =           0.0000000000000000
    VV10 Nonlocal Energy =                  0.1362203718382048
    Total Energy =                       -796.4226503335582947

  UHF NO Occupations:
  HONO-2 :    4B1u 1.9997681
  HONO-1 :    2B2u 1.9982286
  HONO-0 :    2B3g 1.0000000
  LUNO+0 :    3B2u 0.0017714
  LUNO+1 :    5B1u 0.0002319
  LUNO+2 :    6 Ag 0.0001437
  LUNO+3 :    3B2g 0.0001243


Computation Completed


Properties will be evaluated at   0.000000,   0.000000,   0.000000 [a0]

Properties computed using the SCF density matrix

  Nuclear Dipole Moment: [e a0]
     X:     0.0000      Y:     0.0000      Z:     0.0000

  Electronic Dipole Moment: [e a0]
     X:     0.0000      Y:     0.0000      Z:     0.0000

  Dipole Moment: [e a0]
     X:     0.0000      Y:     0.0000      Z:     0.0000     Total:     0.0000

  Dipole Moment: [D]
     X:     0.0000      Y:     0.0000      Z:     0.0000     Total:     0.0000


*** tstop() called on c1-9.compute.lan at Tue Feb  2 11:30:31 2021
Module time:
	user time   =      21.47 seconds =       0.36 minutes
	system time =       0.16 seconds =       0.00 minutes
	total time  =         22 seconds =       0.37 minutes
Total time:
	user time   =     107.69 seconds =       1.79 minutes
	system time =       1.20 seconds =       0.02 minutes
	total time  =        109 seconds =       1.82 minutes

  //>>>>>>>>>>>>>>>>>>>>>>>>>>>>>>>>>>>//
  //    Loading displacement 2 of 3    //
  //<<<<<<<<<<<<<<<<<<<<<<<<<<<<<<<<<<<//

*** tstart() called on c1-9.compute.lan
*** at Tue Feb  2 11:30:31 2021

   => Loading Basis Set <=

    Name: AUG-CC-PVTZ
    Role: ORBITAL
    Keyword: BASIS
    atoms 1-2 entry S          line   906 file /apps/gb/PSI4/1.4.0/share/psi4/basis/aug-cc-pvtz.gbs 


         ---------------------------------------------------------
                                   SCF
               by Justin Turney, Rob Parrish, Andy Simmonett
                          and Daniel G. A. Smith
                              UKS Reference
                        1 Threads,   9536 MiB Core
         ---------------------------------------------------------

  ==> Geometry <==

    Molecular point group: d2h
    Full point group: D_inf_h

    Geometry (in Angstrom), charge = -1, multiplicity = 2:

       Center              X                  Y                   Z               Mass       
    ------------   -----------------  -----------------  -----------------  -----------------
         S            0.000000000000     0.000000000000    -1.002458725114    31.972071174400
         S            0.000000000000     0.000000000000     1.002458725114    31.972071174400

  Running in d2h symmetry.

  Rotational constants: A = ************  B =      0.26234  C =      0.26234 [cm^-1]
  Rotational constants: A = ************  B =   7864.72302  C =   7864.72302 [MHz]
  Nuclear repulsion =   67.568550473826662

  Charge       = -1
  Multiplicity = 2
  Electrons    = 33
  Nalpha       = 17
  Nbeta        = 16

  ==> Algorithm <==

  SCF Algorithm Type is DF.
  DIIS enabled.
  MOM disabled.
  Fractional occupation disabled.
  Guess Type is READ.
  Energy threshold   = 1.00e-08
  Density threshold  = 1.00e-08
  Integral threshold = 0.00e+00

  ==> Primary Basis <==

  Basis Set: AUG-CC-PVTZ
    Blend: AUG-CC-PVTZ
    Number of shells: 32
    Number of basis function: 100
    Number of Cartesian functions: 118
    Spherical Harmonics?: true
    Max angular momentum: 3

  ==> DFT Potential <==

   => Composite Functional: WB97M-V <= 

    wB97M-V Hyb-GGA Exchange-Correlation Functional

    N. Mardirossian and M. Head-Gordon, J. Chem. Phys. 144, 214110 (2016)

    Deriv               =              1
    GGA                 =           TRUE
    Meta                =           TRUE

    Exchange Hybrid     =           TRUE
    MP2 Hybrid          =          FALSE

   => Exchange-Correlation Functionals <=

    1.0000   wB97M-V exchange-correlation functional

   => Exact (HF) Exchange <=

    0.8500            HF,LR [omega = 0.3000]
    0.1500               HF 

   => VV10 Non-Local Parameters <=

    VV10 B              =     6.0000E+00
    VV10 C              =     1.0000E-02

   => Molecular Quadrature <=

    Radial Scheme          =       TREUTLER
    Pruning Scheme         =           NONE
    Nuclear Scheme         =       TREUTLER

    BS radius alpha        =              1
    Pruning alpha          =              1
    Radial Points          =             99
    Spherical Points       =            590
    Total Points           =         113368
    Total Blocks           =            984
    Max Points             =            256
    Max Functions          =            100
    Weights Tolerance      =       1.00E-15

   => Loading Basis Set <=

    Name: (AUG-CC-PVTZ AUX)
    Role: JKFIT
    Keyword: DF_BASIS_SCF
    atoms 1-2 entry S          line   730 file /apps/gb/PSI4/1.4.0/share/psi4/basis/aug-cc-pvtz-jkfit.gbs 

   => Loading Basis Set <=

    Name: AUG-CC-PVTZ
    Role: ORBITAL
    Keyword: BASIS
    atoms 1-2 entry S          line   906 file /apps/gb/PSI4/1.4.0/share/psi4/basis/aug-cc-pvtz.gbs 

  Reading orbitals from file 180, no projection.

  ==> Pre-Iterations <==

   -------------------------------------------------------
    Irrep   Nso     Nmo     Nalpha   Nbeta   Ndocc  Nsocc
   -------------------------------------------------------
     Ag        21      21       0       0       0       0
     B1g        5       5       0       0       0       0
     B2g       12      12       0       0       0       0
     B3g       12      12       0       0       0       0
     Au         5       5       0       0       0       0
     B1u       21      21       0       0       0       0
     B2u       12      12       0       0       0       0
     B3u       12      12       0       0       0       0
   -------------------------------------------------------
    Total     100     100      17      16      16       1
   -------------------------------------------------------

  ==> Integral Setup <==

  ==> DiskDFJK: Density-Fitted J/K Matrices <==

    J tasked:                  Yes
    K tasked:                  Yes
    wK tasked:                 Yes
    Omega:               3.000E-01
    OpenMP threads:              1
    Integrals threads:           1
    Memory [MiB]:             6378
    Algorithm:                Core
    Integral Cache:           NONE
    Schwarz Cutoff:          1E-12
    Fitting Condition:       1E-10

   => Auxiliary Basis Set <=

  Basis Set: (AUG-CC-PVTZ AUX)
    Blend: AUG-CC-PVTZ-JKFIT
    Number of shells: 84
    Number of basis function: 292
    Number of Cartesian functions: 360
    Spherical Harmonics?: true
    Max angular momentum: 4

  Cached 100.0% of DFT collocation blocks in 0.756 [GiB].

  Minimum eigenvalue in the overlap matrix is 2.7499741485E-04.
  Using Symmetric Orthogonalization.

  SCF Guess: Orbitals guess was supplied from a previous computation.

  ==> Iterations <==

                           Total Energy        Delta E     RMS |[F,P]|

   @DF-UKS iter   0:  -796.42232960518777   -7.96422e+02   3.78012e-05 
   @DF-UKS iter   1:  -796.42265129774569   -3.21693e-04   5.84003e-06 DIIS
   @DF-UKS iter   2:  -796.42265131926297   -2.15173e-08   4.08116e-06 DIIS
   @DF-UKS iter   3:  -796.42265133332205   -1.40591e-08   3.44812e-07 DIIS
   @DF-UKS iter   4:  -796.42265133348792   -1.65869e-10   1.08676e-07 DIIS
   @DF-UKS iter   5:  -796.42265133351395   -2.60343e-11   1.46530e-08 DIIS
   @DF-UKS iter   6:  -796.42265133351430   -3.41061e-13   2.47849e-09 DIIS
  Energy and wave function converged.


  ==> Post-Iterations <==

   @Spin Contamination Metric:   4.681803909E-03
   @S^2 Expected:                7.500000000E-01
   @S^2 Observed:                7.546818039E-01
   @S   Expected:                5.000000000E-01
   @S   Observed:                5.000000000E-01

    Orbital Energies [Eh]
    ---------------------

    Alpha Occupied:                                                       

       1B1u  -88.992678     1Ag   -88.992675     2Ag    -7.903961  
       2B1u   -7.903883     1B2u   -5.815337     1B3g   -5.815321  
       3Ag    -5.813737     3B1u   -5.813391     1B3u   -5.805591  
       1B2g   -5.805575     4Ag    -0.672815     4B1u   -0.490636  
       5Ag    -0.231306     2B2u   -0.217327     2B3u   -0.199473  
       2B3g   -0.093707     2B2g   -0.074622  

    Alpha Virtual:                                                        

       5B1u    0.154068     6Ag     0.205001     3B2u    0.212422  
       3B3u    0.216906     3B3g    0.227254     3B2g    0.231091  
       7Ag     0.256438     6B1u    0.280172     7B1u    0.361260  
       1B1g    0.387769     8Ag     0.387919     4B2u    0.433801  
       4B3u    0.441574     9Ag     0.461082     1Au     0.480818  
       8B1u    0.480986     9B1u    0.529548     4B3g    0.530022  
       4B2g    0.532966     5B2u    0.655605     5B3u    0.667429  
      10B1u    0.742651    10Ag     0.751962     5B3g    0.759820  
       6B2u    0.764266     5B2g    0.769802     6B3u    0.776250  
      11Ag     0.777527     2B1g    0.804370    12Ag     0.805155  
      13Ag     0.878343    11B1u    0.887643     2Au     0.887802  
       7B3u    0.923021     7B2u    0.923034     6B3g    0.951869  
       6B2g    0.965329     3B1g    0.988667    14Ag     0.989336  
       7B2g    1.060270     7B3g    1.060283    12B1u    1.061618  
       8B2u    1.210090     8B3u    1.221882    13B1u    1.245317  
       3Au     1.247656    14B1u    1.264138     8B3g    1.407861  
       8B2g    1.420593    15Ag     1.485921    15B1u    1.646439  
      16Ag     1.998754     4B1g    1.998821    16B1u    2.052520  
       9B2u    2.055182     4Au     2.070758     9B3u    2.072831  
      17B1u    2.073959     9B3g    2.175015    17Ag     2.178664  
       9B2g    2.199502    10B2u    2.234603    10B3u    2.250635  
      18Ag     2.283350     5B1g    2.284645    19Ag     2.298004  
      11B2u    2.302391    11B3u    2.327692    12B2u    2.332529  
      12B3u    2.333484    10B3g    2.389787    10B2g    2.389844  
      18B1u    2.517462     5Au     2.518351    11B3g    2.521554  
      11B2g    2.542296    19B1u    2.641969    20Ag     2.739080  
      12B3g    2.814770    12B2g    2.834368    20B1u    3.883649  
      21Ag     4.705406    21B1u    5.532253  

    Beta Occupied:                                                        

       1B1u  -88.989792     1Ag   -88.989790     2Ag    -7.901065  
       2B1u   -7.900957     3Ag    -5.811923     3B1u   -5.811578  
       1B2u   -5.804913     1B3g   -5.804887     1B3u   -5.803520  
       1B2g   -5.803504     4Ag    -0.659580     4B1u   -0.464239  
       5Ag    -0.219520     2B3u   -0.192301     2B2u   -0.168024  
       2B2g   -0.065097  

    Beta Virtual:                                                         

       2B3g    0.150439     5B1u    0.153239     6Ag     0.203974  
       3B2u    0.212540     3B3u    0.218111     3B2g    0.232145  
       3B3g    0.233998     7Ag     0.258790     6B1u    0.285171  
       7B1u    0.364177     8Ag     0.390779     1B1g    0.391541  
       4B3u    0.443320     4B2u    0.446355     9Ag     0.462600  
       8B1u    0.482973     1Au     0.484684     4B3g    0.530111  
       9B1u    0.531180     4B2g    0.533672     5B2u    0.665337  
       5B3u    0.670148    10B1u    0.747383    10Ag     0.753023  
       5B3g    0.766315     5B2g    0.771153     6B2u    0.780015  
       6B3u    0.780845    11Ag     0.782947     2B1g    0.813847  
      12Ag     0.814387    13Ag     0.886755     2Au     0.904752  
      11B1u    0.905113     7B2u    0.926413     7B3u    0.926659  
       6B3g    0.968636     6B2g    0.970123     3B1g    0.996073  
      14Ag     0.996149     7B3g    1.065059     7B2g    1.065418  
      12B1u    1.069344     8B2u    1.217869     8B3u    1.222475  
      13B1u    1.250378     3Au     1.252271    14B1u    1.266343  
       8B3g    1.419636     8B2g    1.422351    15Ag     1.499845  
      15B1u    1.663459     4B1g    2.026627    16Ag     2.027191  
      16B1u    2.063960     9B3u    2.074946     9B2u    2.074992  
       4Au     2.098021    17B1u    2.098792    17Ag     2.184838  
       9B2g    2.207544     9B3g    2.215137    10B2u    2.253656  
      10B3u    2.254078    18Ag     2.298983     5B1g    2.299879  
      19Ag     2.305498    11B3u    2.339556    11B2u    2.348981  
      12B3u    2.357760    12B2u    2.358441    10B2g    2.414879  
      10B3g    2.415434    18B1u    2.534462     5Au     2.535365  
      11B2g    2.547274    11B3g    2.549107    19B1u    2.651771  
      20Ag     2.747623    12B2g    2.838759    12B3g    2.840089  
      20B1u    3.888462    21Ag     4.718806    21B1u    5.543522  

    Final Occupation by Irrep:
             Ag   B1g   B2g   B3g    Au   B1u   B2u   B3u 
    DOCC [     5,    0,    2,    1,    0,    4,    2,    2 ]
    SOCC [     0,    0,    0,    1,    0,    0,    0,    0 ]

  @DF-UKS Final Energy:  -796.42265133351430

   => Energetics <=

    Nuclear Repulsion Energy =             67.5685504738266616
    One-Electron Energy =               -1242.1417550565133752
    Two-Electron Energy =                 417.6662351554182919
    DFT Exchange-Correlation Energy =     -39.6519032683908037
    Empirical Dispersion Energy =           0.0000000000000000
    VV10 Nonlocal Energy =                  0.1362213621447718
    Total Energy =                       -796.4226513335145228

  UHF NO Occupations:
  HONO-2 :    4B1u 1.9997681
  HONO-1 :    2B2u 1.9982271
  HONO-0 :    2B3g 1.0000000
  LUNO+0 :    3B2u 0.0017729
  LUNO+1 :    5B1u 0.0002319
  LUNO+2 :    6 Ag 0.0001437
  LUNO+3 :    3B2g 0.0001242


Computation Completed


Properties will be evaluated at   0.000000,   0.000000,   0.000000 [a0]

Properties computed using the SCF density matrix

  Nuclear Dipole Moment: [e a0]
     X:     0.0000      Y:     0.0000      Z:     0.0000

  Electronic Dipole Moment: [e a0]
     X:     0.0000      Y:     0.0000      Z:     0.0000

  Dipole Moment: [e a0]
     X:     0.0000      Y:     0.0000      Z:     0.0000     Total:     0.0000

  Dipole Moment: [D]
     X:     0.0000      Y:     0.0000      Z:     0.0000     Total:     0.0000


*** tstop() called on c1-9.compute.lan at Tue Feb  2 11:30:50 2021
Module time:
	user time   =      18.83 seconds =       0.31 minutes
	system time =       0.13 seconds =       0.00 minutes
	total time  =         19 seconds =       0.32 minutes
Total time:
	user time   =     126.53 seconds =       2.11 minutes
	system time =       1.33 seconds =       0.02 minutes
	total time  =        128 seconds =       2.13 minutes

  //>>>>>>>>>>>>>>>>>>>>>>>>>>>>>>>>>>>//
  //    Loading displacement 3 of 3    //
  //<<<<<<<<<<<<<<<<<<<<<<<<<<<<<<<<<<<//

*** tstart() called on c1-9.compute.lan
*** at Tue Feb  2 11:30:50 2021

   => Loading Basis Set <=

    Name: AUG-CC-PVTZ
    Role: ORBITAL
    Keyword: BASIS
    atoms 1-2 entry S          line   906 file /apps/gb/PSI4/1.4.0/share/psi4/basis/aug-cc-pvtz.gbs 


         ---------------------------------------------------------
                                   SCF
               by Justin Turney, Rob Parrish, Andy Simmonett
                          and Daniel G. A. Smith
                              UKS Reference
                        1 Threads,   9536 MiB Core
         ---------------------------------------------------------

  ==> Geometry <==

    Molecular point group: d2h
    Full point group: D_inf_h

    Geometry (in Angstrom), charge = -1, multiplicity = 2:

       Center              X                  Y                   Z               Mass       
    ------------   -----------------  -----------------  -----------------  -----------------
         S            0.000000000000     0.000000000000    -1.001796964753    31.972071174400
         S            0.000000000000     0.000000000000     1.001796964753    31.972071174400

  Running in d2h symmetry.

  Rotational constants: A = ************  B =      0.26269  C =      0.26269 [cm^-1]
  Rotational constants: A = ************  B =   7875.11690  C =   7875.11690 [MHz]
  Nuclear repulsion =   67.613184456459180

  Charge       = -1
  Multiplicity = 2
  Electrons    = 33
  Nalpha       = 17
  Nbeta        = 16

  ==> Algorithm <==

  SCF Algorithm Type is DF.
  DIIS enabled.
  MOM disabled.
  Fractional occupation disabled.
  Guess Type is READ.
  Energy threshold   = 1.00e-08
  Density threshold  = 1.00e-08
  Integral threshold = 0.00e+00

  ==> Primary Basis <==

  Basis Set: AUG-CC-PVTZ
    Blend: AUG-CC-PVTZ
    Number of shells: 32
    Number of basis function: 100
    Number of Cartesian functions: 118
    Spherical Harmonics?: true
    Max angular momentum: 3

  ==> DFT Potential <==

   => Composite Functional: WB97M-V <= 

    wB97M-V Hyb-GGA Exchange-Correlation Functional

    N. Mardirossian and M. Head-Gordon, J. Chem. Phys. 144, 214110 (2016)

    Deriv               =              1
    GGA                 =           TRUE
    Meta                =           TRUE

    Exchange Hybrid     =           TRUE
    MP2 Hybrid          =          FALSE

   => Exchange-Correlation Functionals <=

    1.0000   wB97M-V exchange-correlation functional

   => Exact (HF) Exchange <=

    0.8500            HF,LR [omega = 0.3000]
    0.1500               HF 

   => VV10 Non-Local Parameters <=

    VV10 B              =     6.0000E+00
    VV10 C              =     1.0000E-02

   => Molecular Quadrature <=

    Radial Scheme          =       TREUTLER
    Pruning Scheme         =           NONE
    Nuclear Scheme         =       TREUTLER

    BS radius alpha        =              1
    Pruning alpha          =              1
    Radial Points          =             99
    Spherical Points       =            590
    Total Points           =         113376
    Total Blocks           =            984
    Max Points             =            255
    Max Functions          =            100
    Weights Tolerance      =       1.00E-15

   => Loading Basis Set <=

    Name: (AUG-CC-PVTZ AUX)
    Role: JKFIT
    Keyword: DF_BASIS_SCF
    atoms 1-2 entry S          line   730 file /apps/gb/PSI4/1.4.0/share/psi4/basis/aug-cc-pvtz-jkfit.gbs 

   => Loading Basis Set <=

    Name: AUG-CC-PVTZ
    Role: ORBITAL
    Keyword: BASIS
    atoms 1-2 entry S          line   906 file /apps/gb/PSI4/1.4.0/share/psi4/basis/aug-cc-pvtz.gbs 

  Reading orbitals from file 180, no projection.

  ==> Pre-Iterations <==

   -------------------------------------------------------
    Irrep   Nso     Nmo     Nalpha   Nbeta   Ndocc  Nsocc
   -------------------------------------------------------
     Ag        21      21       0       0       0       0
     B1g        5       5       0       0       0       0
     B2g       12      12       0       0       0       0
     B3g       12      12       0       0       0       0
     Au         5       5       0       0       0       0
     B1u       21      21       0       0       0       0
     B2u       12      12       0       0       0       0
     B3u       12      12       0       0       0       0
   -------------------------------------------------------
    Total     100     100      17      16      16       1
   -------------------------------------------------------

  ==> Integral Setup <==

  ==> DiskDFJK: Density-Fitted J/K Matrices <==

    J tasked:                  Yes
    K tasked:                  Yes
    wK tasked:                 Yes
    Omega:               3.000E-01
    OpenMP threads:              1
    Integrals threads:           1
    Memory [MiB]:             6378
    Algorithm:                Core
    Integral Cache:           NONE
    Schwarz Cutoff:          1E-12
    Fitting Condition:       1E-10

   => Auxiliary Basis Set <=

  Basis Set: (AUG-CC-PVTZ AUX)
    Blend: AUG-CC-PVTZ-JKFIT
    Number of shells: 84
    Number of basis function: 292
    Number of Cartesian functions: 360
    Spherical Harmonics?: true
    Max angular momentum: 4

  Cached 100.0% of DFT collocation blocks in 0.756 [GiB].

  Minimum eigenvalue in the overlap matrix is 2.7416122834E-04.
  Using Symmetric Orthogonalization.

  SCF Guess: Orbitals guess was supplied from a previous computation.

  ==> Iterations <==

                           Total Energy        Delta E     RMS |[F,P]|

   @DF-UKS iter   0:  -796.42297131312694   -7.96423e+02   3.78562e-05 
   @DF-UKS iter   1:  -796.42264894248297    3.22371e-04   5.83976e-06 DIIS
   @DF-UKS iter   2:  -796.42264896400047   -2.15175e-08   4.08115e-06 DIIS
[...]
         ---------------------------------------------------------

  ==> Geometry <==

    Molecular point group: d2h
    Full point group: D_inf_h

    Geometry (in Angstrom), charge = -1, multiplicity = 2:

       Center              X                  Y                   Z               Mass       
    ------------   -----------------  -----------------  -----------------  -----------------
         S            0.000000000000     0.000000000000    -1.002901369421    31.972071174400
         S            0.000000000000     0.000000000000     1.002901369421    31.972071174400

  Running in d2h symmetry.

  Rotational constants: A = ************  B =      0.26211  C =      0.26211 [cm^-1]
  Rotational constants: A = ************  B =   7857.78214  C =   7857.78214 [MHz]
  Nuclear repulsion =   67.538728165143667

  Charge       = -1
  Multiplicity = 2
  Electrons    = 33
  Nalpha       = 17
  Nbeta        = 16

  ==> Algorithm <==

  SCF Algorithm Type is DF.
  DIIS enabled.
  MOM disabled.
  Fractional occupation disabled.
  Guess Type is SAD.
  Energy threshold   = 1.00e-10
  Density threshold  = 1.00e-10
  Integral threshold = 0.00e+00

  ==> Primary Basis <==

  Basis Set: AUG-CC-PVTZ
    Blend: AUG-CC-PVTZ
    Number of shells: 32
    Number of basis function: 100
    Number of Cartesian functions: 118
    Spherical Harmonics?: true
    Max angular momentum: 3

  ==> DFT Potential <==

   => Composite Functional: WB97M-V <= 

    wB97M-V Hyb-GGA Exchange-Correlation Functional

    N. Mardirossian and M. Head-Gordon, J. Chem. Phys. 144, 214110 (2016)

    Deriv               =              1
    GGA                 =           TRUE
    Meta                =           TRUE

    Exchange Hybrid     =           TRUE
    MP2 Hybrid          =          FALSE

   => Exchange-Correlation Functionals <=

    1.0000   wB97M-V exchange-correlation functional

   => Exact (HF) Exchange <=

    0.8500            HF,LR [omega = 0.3000]
    0.1500               HF 

   => VV10 Non-Local Parameters <=

    VV10 B              =     6.0000E+00
    VV10 C              =     1.0000E-02

   => Molecular Quadrature <=

    Radial Scheme          =       TREUTLER
    Pruning Scheme         =           NONE
    Nuclear Scheme         =       TREUTLER

    BS radius alpha        =              1
    Pruning alpha          =              1
    Radial Points          =             99
    Spherical Points       =            590
    Total Points           =         113376
    Total Blocks           =            984
    Max Points             =            256
    Max Functions          =            100
    Weights Tolerance      =       1.00E-15

   => Loading Basis Set <=

    Name: (AUG-CC-PVTZ AUX)
    Role: JKFIT
    Keyword: DF_BASIS_SCF
    atoms 1-2 entry S          line   730 file /apps/gb/PSI4/1.4.0/share/psi4/basis/aug-cc-pvtz-jkfit.gbs 

  ==> Pre-Iterations <==

   -------------------------------------------------------
    Irrep   Nso     Nmo     Nalpha   Nbeta   Ndocc  Nsocc
   -------------------------------------------------------
     Ag        21      21       0       0       0       0
     B1g        5       5       0       0       0       0
     B2g       12      12       0       0       0       0
     B3g       12      12       0       0       0       0
     Au         5       5       0       0       0       0
     B1u       21      21       0       0       0       0
     B2u       12      12       0       0       0       0
     B3u       12      12       0       0       0       0
   -------------------------------------------------------
    Total     100     100      17      16      16       1
   -------------------------------------------------------

  ==> Integral Setup <==

  ==> DiskDFJK: Density-Fitted J/K Matrices <==

    J tasked:                  Yes
    K tasked:                  Yes
    wK tasked:                 Yes
    Omega:               3.000E-01
    OpenMP threads:              1
    Integrals threads:           1
    Memory [MiB]:             6378
    Algorithm:                Core
    Integral Cache:           NONE
    Schwarz Cutoff:          1E-12
    Fitting Condition:       1E-10

   => Auxiliary Basis Set <=

  Basis Set: (AUG-CC-PVTZ AUX)
    Blend: AUG-CC-PVTZ-JKFIT
    Number of shells: 84
    Number of basis function: 292
    Number of Cartesian functions: 360
    Spherical Harmonics?: true
    Max angular momentum: 4

  Cached 100.0% of DFT collocation blocks in 0.756 [GiB].

  Minimum eigenvalue in the overlap matrix is 2.7555800092E-04.
  Using Symmetric Orthogonalization.

  SCF Guess: Superposition of Atomic Densities via on-the-fly atomic UHF.

  ==> Iterations <==

                           Total Energy        Delta E     RMS |[F,P]|

   @DF-UKS iter SAD:  -795.86188264834811   -7.95862e+02   0.00000e+00 
   @DF-UKS iter   1:  -796.34967890730422   -4.87796e-01   9.33315e-03 DIIS
   @DF-UKS iter   2:  -796.40499384334794   -5.53149e-02   5.40888e-03 DIIS
   @DF-UKS iter   3:  -796.42220020882280   -1.72064e-02   6.01436e-04 DIIS
   @DF-UKS iter   4:  -796.42257458689460   -3.74378e-04   1.98573e-04 DIIS
   @DF-UKS iter   5:  -796.42264914233465   -7.45554e-05   3.13167e-05 DIIS
   @DF-UKS iter   6:  -796.42265199151518   -2.84918e-06   5.57727e-06 DIIS
   @DF-UKS iter   7:  -796.42265211490303   -1.23388e-07   8.85301e-07 DIIS
   @DF-UKS iter   8:  -796.42265211814151   -3.23848e-09   1.68030e-07 DIIS
   @DF-UKS iter   9:  -796.42265211824770   -1.06184e-10   2.49017e-08 DIIS
   @DF-UKS iter  10:  -796.42265211824986   -2.16005e-12   4.82839e-09 DIIS
   @DF-UKS iter  11:  -796.42265211825008   -2.27374e-13   9.63423e-10 DIIS
   @DF-UKS iter  12:  -796.42265211824952    5.68434e-13   1.48510e-10 DIIS
   @DF-UKS iter  13:  -796.42265211825020   -6.82121e-13   2.93412e-11 DIIS
  Energy and wave function converged.


  ==> Post-Iterations <==

   @Spin Contamination Metric:   4.685728142E-03
   @S^2 Expected:                7.500000000E-01
   @S^2 Observed:                7.546857281E-01
   @S   Expected:                5.000000000E-01
   @S   Observed:                5.000000000E-01

    Orbital Energies [Eh]
    ---------------------

    Alpha Occupied:                                                       

       1B1u  -88.992742     1Ag   -88.992739     2Ag    -7.904007  
       2B1u   -7.903930     1B2u   -5.815384     1B3g   -5.815369  
       3Ag    -5.813785     3B1u   -5.813442     1B3u   -5.805638  
       1B2g   -5.805621     4Ag    -0.672630     4B1u   -0.490736  
       5Ag    -0.231251     2B2u   -0.217245     2B3u   -0.199391  
       2B3g   -0.093801     2B2g   -0.074716  

    Alpha Virtual:                                                        

       5B1u    0.154056     6Ag     0.204999     3B2u    0.212425  
       3B3u    0.216909     3B3g    0.227247     3B2g    0.231082  
       7Ag     0.256446     6B1u    0.280004     7B1u    0.361181  
       1B1g    0.387772     8Ag     0.387922     4B2u    0.433762  
       4B3u    0.441537     9Ag     0.461134     1Au     0.480781  
       8B1u    0.480949     9B1u    0.529427     4B3g    0.530014  
       4B2g    0.532962     5B2u    0.655632     5B3u    0.667455  
      10B1u    0.742682    10Ag     0.752053     5B3g    0.759792  
       6B2u    0.764266     5B2g    0.769776     6B3u    0.776249  
      11Ag     0.777577     2B1g    0.804428    12Ag     0.805211  
      13Ag     0.878155    11B1u    0.887592     2Au     0.887751  
       7B3u    0.923043     7B2u    0.923056     6B3g    0.951721  
       6B2g    0.965181     3B1g    0.988540    14Ag     0.989208  
       7B2g    1.060194     7B3g    1.060207    12B1u    1.061325  
       8B2u    1.209918     8B3u    1.221709    13B1u    1.245136  
       3Au     1.247511    14B1u    1.263787     8B3g    1.407722  
       8B2g    1.420450    15Ag     1.485586    15B1u    1.646433  
      16Ag     1.998714     4B1g    1.998781    16B1u    2.052650  
       9B2u    2.055300     4Au     2.070685     9B3u    2.072958  
      17B1u    2.073912     9B3g    2.175127    17Ag     2.178882  
       9B2g    2.199612    10B2u    2.234414    10B3u    2.250435  
      18Ag     2.283596     5B1g    2.284897    19Ag     2.298222  
      11B2u    2.302342    11B3u    2.327658    12B2u    2.332560  
      12B3u    2.333506    10B3g    2.389719    10B2g    2.389777  
      18B1u    2.517142     5Au     2.518034    11B3g    2.521039  
      11B2g    2.541784    19B1u    2.641501    20Ag     2.737590  
      12B3g    2.814135    12B2g    2.833728    20B1u    3.883156  
      21Ag     4.704028    21B1u    5.531823  

    Beta Occupied:                                                        

       1B1u  -88.989855     1Ag   -88.989853     2Ag    -7.901111  
       2B1u   -7.901003     3Ag    -5.811971     3B1u   -5.811628  
       1B2u   -5.804959     1B3g   -5.804933     1B3u   -5.803567  
       1B2g   -5.803550     4Ag    -0.659387     4B1u   -0.464340  
       5Ag    -0.219469     2B3u   -0.192218     2B2u   -0.167917  
       2B2g   -0.065191  

    Beta Virtual:                                                         

       2B3g    0.150356     5B1u    0.153230     6Ag     0.203973  
       3B2u    0.212553     3B3u    0.218116     3B2g    0.232135  
       3B3g    0.233982     7Ag     0.258802     6B1u    0.285020  
       7B1u    0.364087     8Ag     0.390783     1B1g    0.391544  
       4B3u    0.443283     4B2u    0.446314     9Ag     0.462653  
       8B1u    0.482941     1Au     0.484650     4B3g    0.530109  
       9B1u    0.531058     4B2g    0.533668     5B2u    0.665369  
       5B3u    0.670175    10B1u    0.747412    10Ag     0.753101  
       5B3g    0.766291     5B2g    0.771128     6B2u    0.780008  
       6B3u    0.780842    11Ag     0.783013     2B1g    0.813910  
      12Ag     0.814449    13Ag     0.886566     2Au     0.904701  
      11B1u    0.905061     7B2u    0.926435     7B3u    0.926680  
       6B3g    0.968489     6B2g    0.969976     3B1g    0.995942  
      14Ag     0.996018     7B3g    1.064981     7B2g    1.065340  
      12B1u    1.069053     8B2u    1.217695     8B3u    1.222302  
      13B1u    1.250207     3Au     1.252121    14B1u    1.265972  
       8B3g    1.419488     8B2g    1.422205    15Ag     1.499492  
      15B1u    1.663470     4B1g    2.026590    16Ag     2.027155  
      16B1u    2.064102     9B3u    2.075078     9B2u    2.075144  
       4Au     2.097951    17B1u    2.098723    17Ag     2.185057  
       9B2g    2.207651     9B3g    2.215240    10B2u    2.253438  
      10B3u    2.253870    18Ag     2.299240     5B1g    2.300136  
      19Ag     2.305712    11B3u    2.339516    11B2u    2.348944  
      12B3u    2.357795    12B2u    2.358475    10B2g    2.414814  
      10B3g    2.415370    18B1u    2.534141     5Au     2.535044  
      11B2g    2.546764    11B3g    2.548602    19B1u    2.651300  
      20Ag     2.746132    12B2g    2.838117    12B3g    2.839444  
      20B1u    3.887963    21Ag     4.717430    21B1u    5.543094  

    Final Occupation by Irrep:
             Ag   B1g   B2g   B3g    Au   B1u   B2u   B3u 
    DOCC [     5,    0,    2,    1,    0,    4,    2,    2 ]
    SOCC [     0,    0,    0,    1,    0,    0,    0,    0 ]

  @DF-UKS Final Energy:  -796.42265211825020

   => Energetics <=

    Nuclear Repulsion Energy =             67.5387281651436666
    One-Electron Energy =               -1242.0816072742127290
    Two-Electron Energy =                 417.6356425944308057
    DFT Exchange-Correlation Energy =     -39.6516382908862539
    Empirical Dispersion Energy =           0.0000000000000000
    VV10 Nonlocal Energy =                  0.1362226872743909
    Total Energy =                       -796.4226521182499710

  UHF NO Occupations:
  HONO-2 :    4B1u 1.9997681
  HONO-1 :    2B2u 1.9982250
  HONO-0 :    2B3g 1.0000000
  LUNO+0 :    3B2u 0.0017750
  LUNO+1 :    5B1u 0.0002319
  LUNO+2 :    6 Ag 0.0001437
  LUNO+3 :    3B2g 0.0001241


Computation Completed


Properties will be evaluated at   0.000000,   0.000000,   0.000000 [a0]

Properties computed using the SCF density matrix

  Nuclear Dipole Moment: [e a0]
     X:     0.0000      Y:     0.0000      Z:     0.0000

  Electronic Dipole Moment: [e a0]
     X:     0.0000      Y:     0.0000      Z:     0.0000

  Dipole Moment: [e a0]
     X:     0.0000      Y:     0.0000      Z:     0.0000     Total:     0.0000

  Dipole Moment: [D]
     X:     0.0000      Y:     0.0000      Z:     0.0000     Total:     0.0000


*** tstop() called on c1-9.compute.lan at Tue Feb  2 11:36:13 2021
Module time:
	user time   =      36.20 seconds =       0.60 minutes
	system time =       0.16 seconds =       0.00 minutes
	total time  =         36 seconds =       0.60 minutes
Total time:
	user time   =     448.07 seconds =       7.47 minutes
	system time =       3.08 seconds =       0.05 minutes
	total time  =        451 seconds =       7.52 minutes

         ----------------------------------------------------------
                                   FINDIF
                     R. A. King and Jonathon Misiewicz
         ---------------------------------------------------------

  Computing second-derivative from energies using projected, 
  symmetry-adapted, cartesian coordinates.

  3 energies passed in, including the reference geometry.
    Using 3-point formula.
    Energy without displacement: -796.4226522944
    Check energies below for precision!
    0: -1 :      -796.4226521189
    0: 1  :      -796.4226521183

-------------------------------------------------------------


  ==> Harmonic Vibrational Analysis <==

  non-mass-weighted Hessian:       Symmetric? True   Hermitian? True   Lin Dep Dim?  5 (0)
  projection of translations (True) and rotations (True) removed 5 degrees of freedom (5)
  total projector:                 Symmetric? True   Hermitian? True   Lin Dep Dim?  5 (5)
  mass-weighted Hessian:           Symmetric? True   Hermitian? True   Lin Dep Dim?  5 (0)
  pre-proj  low-frequency mode:    0.0000  [cm^-1]
  pre-proj  low-frequency mode:    0.0000  [cm^-1]
  pre-proj  low-frequency mode:    0.0000  [cm^-1]
  pre-proj  low-frequency mode:    0.0000  [cm^-1]
  pre-proj  low-frequency mode:    0.0000  [cm^-1]
  pre-proj  all modes:['0.0000' '0.0000' '0.0000' '0.0000' '0.0000' '609.7726']
  projected mass-weighted Hessian: Symmetric? True   Hermitian? True   Lin Dep Dim?  5 (5)
  post-proj low-frequency mode:    0.0000  [cm^-1] (TR)
  post-proj low-frequency mode:    0.0000  [cm^-1] (TR)
  post-proj low-frequency mode:    0.0000  [cm^-1] (TR)
  post-proj low-frequency mode:    0.0000  [cm^-1] (TR)
  post-proj low-frequency mode:    0.0000  [cm^-1] (TR)
  post-proj  all modes:['0.0000' '0.0000' '0.0000' '0.0000' '0.0000' '609.7726']

  Vibration                       6           
  Freq [cm^-1]                 609.7726       
  Irrep                           Ag          
  Reduced mass [u]             31.9721        
  Force const [mDyne/A]         7.0042        
  Turning point v=0 [a0]        0.0786        
  RMS dev v=0 [a0 u^1/2]        0.3142        
  Char temp [K]                877.3270       
  ----------------------------------------------------------------------------------
      1   S                0.00  0.00  0.71   
      2   S                0.00  0.00 -0.71   

  ==> Thermochemistry Components <==

  Entropy, S
    Electronic S            1.377 [cal/(mol K)]        5.763 [J/(mol K)]       0.00219507 [mEh/K] (multiplicity = 2)
    Translational S        38.385 [cal/(mol K)]      160.603 [J/(mol K)]       0.06117054 [mEh/K] (mol. weight = 63.9441 [u], P = 101325.00 [Pa])
    Rotational S           13.871 [cal/(mol K)]       58.038 [J/(mol K)]       0.02210534 [mEh/K] (symmetry no. = 2)
    Vibrational S           0.433 [cal/(mol K)]        1.812 [J/(mol K)]       0.00069027 [mEh/K]
  Total S                  54.067 [cal/(mol K)]      226.216 [J/(mol K)]       0.08616122 [mEh/K]
  Correction S              0.000 [cal/(mol K)]        0.000 [J/(mol K)]       0.00000000 [mEh/K]

  Constant volume heat capacity, Cv
    Electronic Cv           0.000 [cal/(mol K)]        0.000 [J/(mol K)]       0.00000000 [mEh/K]
    Translational Cv        2.981 [cal/(mol K)]       12.472 [J/(mol K)]       0.00475022 [mEh/K]
    Rotational Cv           1.987 [cal/(mol K)]        8.314 [J/(mol K)]       0.00316681 [mEh/K]
    Vibrational Cv          1.011 [cal/(mol K)]        4.231 [J/(mol K)]       0.00161134 [mEh/K]
  Total Cv                  5.979 [cal/(mol K)]       25.017 [J/(mol K)]       0.00952836 [mEh/K]
  Correction Cv             0.000 [cal/(mol K)]        0.000 [J/(mol K)]       0.00000000 [mEh/K]

  Constant pressure heat capacity, Cp
    Electronic Cp           0.000 [cal/(mol K)]        0.000 [J/(mol K)]       0.00000000 [mEh/K]
    Translational Cp        4.968 [cal/(mol K)]       20.786 [J/(mol K)]       0.00791703 [mEh/K]
    Rotational Cp           1.987 [cal/(mol K)]        8.314 [J/(mol K)]       0.00316681 [mEh/K]
    Vibrational Cp          1.011 [cal/(mol K)]        4.231 [J/(mol K)]       0.00161134 [mEh/K]
  Total Cp                  7.966 [cal/(mol K)]       33.331 [J/(mol K)]       0.01269517 [mEh/K]
  Correction Cp             0.000 [cal/(mol K)]        0.000 [J/(mol K)]       0.00000000 [mEh/K]

  ==> Thermochemistry Energy Analysis <==

  Raw electronic energy, E0
  Total E0, Electronic energy at well bottom at 0 [K]                 -796.42265229 [Eh]

  Zero-point energy, ZPE_vib = Sum_i nu_i / 2
    Electronic ZPE          0.000 [kcal/mol]        0.000 [kJ/mol]       0.00000000 [Eh]
    Translational ZPE       0.000 [kcal/mol]        0.000 [kJ/mol]       0.00000000 [Eh]
    Rotational ZPE          0.000 [kcal/mol]        0.000 [kJ/mol]       0.00000000 [Eh]
    Vibrational ZPE         0.872 [kcal/mol]        3.647 [kJ/mol]       0.00138916 [Eh]         304.886 [cm^-1]
  Correction ZPE            0.872 [kcal/mol]        3.647 [kJ/mol]       0.00138916 [Eh]         304.886 [cm^-1]
  Total ZPE, Electronic energy at 0 [K]                               -796.42126313 [Eh]

  Thermal Energy, E (includes ZPE)
    Electronic E            0.000 [kcal/mol]        0.000 [kJ/mol]       0.00000000 [Eh]
    Translational E         0.889 [kcal/mol]        3.718 [kJ/mol]       0.00141628 [Eh]
    Rotational E            0.592 [kcal/mol]        2.479 [kJ/mol]       0.00094418 [Eh]
    Vibrational E           0.969 [kcal/mol]        4.053 [kJ/mol]       0.00154382 [Eh]
  Correction E              2.450 [kcal/mol]       10.251 [kJ/mol]       0.00390428 [Eh]
  Total E, Electronic energy at  298.15 [K]                           -796.41874801 [Eh]

  Enthalpy, H_trans = E_trans + k_B * T
    Electronic H            0.000 [kcal/mol]        0.000 [kJ/mol]       0.00000000 [Eh]
    Translational H         1.481 [kcal/mol]        6.197 [kJ/mol]       0.00236046 [Eh]
    Rotational H            0.592 [kcal/mol]        2.479 [kJ/mol]       0.00094418 [Eh]
    Vibrational H           0.969 [kcal/mol]        4.053 [kJ/mol]       0.00154382 [Eh]
  Correction H              3.042 [kcal/mol]       12.730 [kJ/mol]       0.00484847 [Eh]
  Total H, Enthalpy at  298.15 [K]                                    -796.41780383 [Eh]

  Gibbs free energy, G = H - T * S
    Electronic G           -0.411 [kcal/mol]       -1.718 [kJ/mol]      -0.00065446 [Eh]
    Translational G        -9.963 [kcal/mol]      -41.686 [kJ/mol]      -0.01587754 [Eh]
    Rotational G           -3.543 [kcal/mol]      -14.825 [kJ/mol]      -0.00564652 [Eh]
    Vibrational G           0.840 [kcal/mol]        3.513 [kJ/mol]       0.00133802 [Eh]
  Correction G            -13.078 [kcal/mol]      -54.717 [kJ/mol]      -0.02084050 [Eh]
  Total G, Free enthalpy at  298.15 [K]                               -796.44349279 [Eh]

    Psi4 stopped on: Tuesday, 02 February 2021 11:36AM
    Psi4 wall time for execution: 0:07:32.12

*** Psi4 exiting successfully. Buy a developer a beer!
