
    -----------------------------------------------------------------------
          Psi4: An Open-Source Ab Initio Electronic Structure Package
                               Psi4 1.4a2.dev191 

                         Git: Rev {master} 0ab5346 


    R. M. Parrish, L. A. Burns, D. G. A. Smith, A. C. Simmonett,
    A. E. DePrince III, E. G. Hohenstein, U. Bozkaya, A. Yu. Sokolov,
    R. Di Remigio, R. M. Richard, J. F. Gonthier, A. M. James,
    H. R. McAlexander, A. Kumar, M. Saitow, X. Wang, B. P. Pritchard,
    P. Verma, H. F. Schaefer III, K. Patkowski, R. A. King, E. F. Valeev,
    F. A. Evangelista, J. M. Turney, T. D. Crawford, and C. D. Sherrill,
    J. Chem. Theory Comput. 13(7) pp 3185--3197 (2017).
    (doi: 10.1021/acs.jctc.7b00174)


                         Additional Contributions by
    P. Kraus, H. Kruse, M. H. Lechner, M. C. Schieber, R. A. Shaw,
    A. Alenaizan, R. Galvelis, Z. L. Glick, S. Lehtola, and J. P. Misiewicz

    -----------------------------------------------------------------------


    Psi4 started on: Tuesday, 02 February 2021 11:28AM

    Process ID: 11187
    Host:       c1-9.compute.lan
    PSIDATADIR: /apps/gb/PSI4/1.4.0/share/psi4
    Memory:     500.0 MiB
    Threads:    1
    
  ==> Input File <==

--------------------------------------------------------------------------
memory 10 GB

molecule  {
0 1
S
S 1 r1
r1 = 2.0
}

set {
reference uks
basis aug-cc-pvtz
g_convergence gau_verytight
dft_spherical_points 590
dft_radial_points 99
}

optimize('wb97m-v')
frequencies('wb97m-v')

--------------------------------------------------------------------------

  Memory set to   9.313 GiB by Python driver.
gradient() will perform gradient computation by finite difference of analytic energies.

         ----------------------------------------------------------
                                   FINDIF
                     R. A. King and Jonathon Misiewicz
         ---------------------------------------------------------

  Using finite-differences of energies to determine gradients.
    Generating geometries for use with 3-point formula.
    Displacement size will be 5.00e-03.
    Number of atoms is 2.
    Number of symmetric SALCs is 1.
    Translations projected? 1. Rotations projected? 1.
    Number of geometries (including reference) is 3.

  //>>>>>>>>>>>>>>>>>>>>>>>>>>>>>>>>>>>//
  //    Loading displacement 1 of 3    //
  //<<<<<<<<<<<<<<<<<<<<<<<<<<<<<<<<<<<//

*** tstart() called on c1-9.compute.lan
*** at Tue Feb  2 11:28:42 2021

   => Loading Basis Set <=

    Name: AUG-CC-PVTZ
    Role: ORBITAL
    Keyword: BASIS
    atoms 1-2 entry S          line   906 file /apps/gb/PSI4/1.4.0/share/psi4/basis/aug-cc-pvtz.gbs 


         ---------------------------------------------------------
                                   SCF
               by Justin Turney, Rob Parrish, Andy Simmonett
                          and Daniel G. A. Smith
                              UKS Reference
                        1 Threads,   9536 MiB Core
         ---------------------------------------------------------

  ==> Geometry <==

    Molecular point group: d2h
    Full point group: D_inf_h

    Geometry (in Angstrom), charge = 0, multiplicity = 1:

       Center              X                  Y                   Z               Mass       
    ------------   -----------------  -----------------  -----------------  -----------------
         S            0.000000000000     0.000000000000    -1.000000000000    31.972071174400
         S            0.000000000000     0.000000000000     1.000000000000    31.972071174400

  Running in d2h symmetry.

  Rotational constants: A = ************  B =      0.26363  C =      0.26363 [cm^-1]
  Rotational constants: A = ************  B =   7903.44495  C =   7903.44495 [MHz]
  Nuclear repulsion =   67.734682965759930

  Charge       = 0
  Multiplicity = 1
  Electrons    = 32
  Nalpha       = 16
  Nbeta        = 16

  ==> Algorithm <==

  SCF Algorithm Type is DF.
  DIIS enabled.
  MOM disabled.
  Fractional occupation disabled.
  Guess Type is SAD.
  Energy threshold   = 1.00e-08
  Density threshold  = 1.00e-08
  Integral threshold = 0.00e+00

  ==> Primary Basis <==

  Basis Set: AUG-CC-PVTZ
    Blend: AUG-CC-PVTZ
    Number of shells: 32
    Number of basis function: 100
    Number of Cartesian functions: 118
    Spherical Harmonics?: true
    Max angular momentum: 3

  ==> DFT Potential <==

   => Composite Functional: WB97M-V <= 

    wB97M-V Hyb-GGA Exchange-Correlation Functional

    N. Mardirossian and M. Head-Gordon, J. Chem. Phys. 144, 214110 (2016)

    Deriv               =              1
    GGA                 =           TRUE
    Meta                =           TRUE

    Exchange Hybrid     =           TRUE
    MP2 Hybrid          =          FALSE

   => Exchange-Correlation Functionals <=

    1.0000   wB97M-V exchange-correlation functional

   => Exact (HF) Exchange <=

    0.8500            HF,LR [omega = 0.3000]
    0.1500               HF 

   => VV10 Non-Local Parameters <=

    VV10 B              =     6.0000E+00
    VV10 C              =     1.0000E-02

   => Molecular Quadrature <=

    Radial Scheme          =       TREUTLER
    Pruning Scheme         =           NONE
    Nuclear Scheme         =       TREUTLER

    BS radius alpha        =              1
    Pruning alpha          =              1
    Radial Points          =             99
    Spherical Points       =            590
    Total Points           =         113384
    Total Blocks           =            986
    Max Points             =            255
    Max Functions          =            100
    Weights Tolerance      =       1.00E-15

   => Loading Basis Set <=

    Name: (AUG-CC-PVTZ AUX)
    Role: JKFIT
    Keyword: DF_BASIS_SCF
    atoms 1-2 entry S          line   730 file /apps/gb/PSI4/1.4.0/share/psi4/basis/aug-cc-pvtz-jkfit.gbs 

  ==> Pre-Iterations <==

   -------------------------------------------------------
    Irrep   Nso     Nmo     Nalpha   Nbeta   Ndocc  Nsocc
   -------------------------------------------------------
     Ag        21      21       0       0       0       0
     B1g        5       5       0       0       0       0
     B2g       12      12       0       0       0       0
     B3g       12      12       0       0       0       0
     Au         5       5       0       0       0       0
     B1u       21      21       0       0       0       0
     B2u       12      12       0       0       0       0
     B3u       12      12       0       0       0       0
   -------------------------------------------------------
    Total     100     100      16      16      16       0
   -------------------------------------------------------

  ==> Integral Setup <==

  ==> DiskDFJK: Density-Fitted J/K Matrices <==

    J tasked:                  Yes
    K tasked:                  Yes
    wK tasked:                 Yes
    Omega:               3.000E-01
    OpenMP threads:              1
    Integrals threads:           1
    Memory [MiB]:             6378
    Algorithm:                Core
    Integral Cache:           NONE
    Schwarz Cutoff:          1E-12
    Fitting Condition:       1E-10

   => Auxiliary Basis Set <=

  Basis Set: (AUG-CC-PVTZ AUX)
    Blend: AUG-CC-PVTZ-JKFIT
    Number of shells: 84
    Number of basis function: 292
    Number of Cartesian functions: 360
    Spherical Harmonics?: true
    Max angular momentum: 4

  Cached 100.0% of DFT collocation blocks in 0.756 [GiB].

  Minimum eigenvalue in the overlap matrix is 2.7190206739E-04.
  Using Symmetric Orthogonalization.

  SCF Guess: Superposition of Atomic Densities via on-the-fly atomic UHF.

  ==> Iterations <==

                           Total Energy        Delta E     RMS |[F,P]|

   @DF-UKS iter SAD:  -795.86916376921477   -7.95869e+02   0.00000e+00 
   @DF-UKS iter   1:  -796.30850449832724   -4.39341e-01   5.78841e-03 DIIS
   @DF-UKS iter   2:  -796.32346785077789   -1.49634e-02   1.89610e-03 DIIS
   @DF-UKS iter   3:  -796.32478086401443   -1.31301e-03   1.52859e-04 DIIS
   @DF-UKS iter   4:  -796.32484326307099   -6.23991e-05   3.14170e-05 DIIS
   @DF-UKS iter   5:  -796.32484622795391   -2.96488e-06   4.97564e-06 DIIS
   @DF-UKS iter   6:  -796.32484625976008   -3.18062e-08   1.98000e-06 DIIS
   @DF-UKS iter   7:  -796.32484626444000   -4.67992e-09   1.35828e-07 DIIS
   @DF-UKS iter   8:  -796.32484626449104   -5.10454e-11   1.76913e-08 DIIS
   @DF-UKS iter   9:  -796.32484626449241   -1.36424e-12   2.59580e-09 DIIS
  Energy and wave function converged.


  ==> Post-Iterations <==

   @Spin Contamination Metric:  -1.065814104E-14
   @S^2 Expected:                0.000000000E+00
   @S^2 Observed:               -1.065814104E-14
   @S   Expected:                0.000000000E+00
   @S   Observed:                0.000000000E+00

    Orbital Energies [Eh]
    ---------------------

    Alpha Occupied:                                                       

       1B1u  -89.272088     1Ag   -89.272086     2Ag    -8.179992  
       2B1u   -8.179878     1B2u   -6.091930     1B3g   -6.091904  
       3Ag    -6.088947     3B1u   -6.088593     1B3u   -6.079326  
       1B2g   -6.079309     4Ag    -0.926090     4B1u   -0.733609  
       5Ag    -0.478557     2B3u   -0.443250     2B2u   -0.436984  
       2B2g   -0.316643  

    Alpha Virtual:                                                        

       2B3g   -0.105650     5B1u    0.020648     3B2u    0.064300  
       6Ag     0.064393     3B3u    0.071582     6B1u    0.082308  
       7Ag     0.085172     3B3g    0.093708     3B2g    0.096534  
       1B1g    0.189159     8Ag     0.189430     7B1u    0.192974  
       4B2u    0.235417     4B3u    0.241592     9Ag     0.278951  
       8B1u    0.292484     1Au     0.292754     9B1u    0.347248  
       4B3g    0.352677     4B2g    0.360485     5B2u    0.450006  
       5B3u    0.465381     6B2u    0.542574    10Ag     0.550724  
      10B1u    0.555823     6B3u    0.556768     5B3g    0.558118  
      11Ag     0.563654     5B2g    0.572303     2B1g    0.576398  
      12Ag     0.580626    13Ag     0.652468    11B1u    0.660502  
       2Au     0.660604     7B2u    0.706197     7B3u    0.706269  
       6B3g    0.726793     6B2g    0.741875     3B1g    0.768876  
      14Ag     0.770193    12B1u    0.837298     7B3g    0.846485  
       7B2g    0.846581     8B2u    0.992073     8B3u    1.008050  
      13B1u    1.027819     3Au     1.034512    14B1u    1.049953  
       8B3g    1.191654     8B2g    1.206603    15Ag     1.267578  
      15B1u    1.429169     4B1g    1.760488    16Ag     1.761818  
       9B2u    1.810573    16B1u    1.813510     9B3u    1.828430  
       4Au     1.833398    17B1u    1.836426    17Ag     1.938189  
       9B3g    1.942015     9B2g    1.958426    10B2u    1.993354  
      10B3u    2.011280    18Ag     2.040528     5B1g    2.044326  
      19Ag     2.055499    11B2u    2.068370    11B3u    2.084123  
      12B2u    2.096028    12B3u    2.097115    10B2g    2.153569  
      10B3g    2.153576    18B1u    2.278363     5Au     2.279918  
      11B3g    2.284289    11B2g    2.304243    19B1u    2.402783  
      20Ag     2.495537    12B3g    2.574115    12B2g    2.593580  
      20B1u    3.638770    21Ag     4.467322    21B1u    5.293548  

    Beta Occupied:                                                        

       1B1u  -89.272088     1Ag   -89.272086     2Ag    -8.179992  
       2B1u   -8.179878     1B2u   -6.091930     1B3g   -6.091904  
       3Ag    -6.088947     3B1u   -6.088593     1B3u   -6.079326  
       1B2g   -6.079309     4Ag    -0.926090     4B1u   -0.733609  
       5Ag    -0.478557     2B3u   -0.443250     2B2u   -0.436984  
       2B2g   -0.316643  

    Beta Virtual:                                                         

       2B3g   -0.105650     5B1u    0.020648     3B2u    0.064300  
       6Ag     0.064393     3B3u    0.071582     6B1u    0.082308  
       7Ag     0.085172     3B3g    0.093708     3B2g    0.096534  
       1B1g    0.189159     8Ag     0.189430     7B1u    0.192974  
       4B2u    0.235417     4B3u    0.241592     9Ag     0.278951  
       8B1u    0.292484     1Au     0.292754     9B1u    0.347248  
       4B3g    0.352677     4B2g    0.360485     5B2u    0.450006  
       5B3u    0.465381     6B2u    0.542574    10Ag     0.550724  
      10B1u    0.555823     6B3u    0.556768     5B3g    0.558118  
      11Ag     0.563654     5B2g    0.572303     2B1g    0.576398  
      12Ag     0.580626    13Ag     0.652468    11B1u    0.660502  
       2Au     0.660604     7B2u    0.706197     7B3u    0.706269  
       6B3g    0.726793     6B2g    0.741875     3B1g    0.768876  
      14Ag     0.770193    12B1u    0.837298     7B3g    0.846485  
       7B2g    0.846581     8B2u    0.992073     8B3u    1.008050  
      13B1u    1.027819     3Au     1.034512    14B1u    1.049953  
       8B3g    1.191654     8B2g    1.206603    15Ag     1.267578  
      15B1u    1.429169     4B1g    1.760488    16Ag     1.761818  
       9B2u    1.810573    16B1u    1.813510     9B3u    1.828430  
       4Au     1.833398    17B1u    1.836426    17Ag     1.938189  
       9B3g    1.942015     9B2g    1.958426    10B2u    1.993354  
      10B3u    2.011280    18Ag     2.040528     5B1g    2.044326  
      19Ag     2.055499    11B2u    2.068370    11B3u    2.084123  
      12B2u    2.096028    12B3u    2.097115    10B2g    2.153569  
      10B3g    2.153576    18B1u    2.278363     5Au     2.279918  
      11B3g    2.284289    11B2g    2.304243    19B1u    2.402783  
      20Ag     2.495537    12B3g    2.574115    12B2g    2.593580  
      20B1u    3.638770    21Ag     4.467322    21B1u    5.293548  

    Final Occupation by Irrep:
             Ag   B1g   B2g   B3g    Au   B1u   B2u   B3u 
    DOCC [     5,    0,    2,    1,    0,    4,    2,    2 ]
    SOCC [     0,    0,    0,    0,    0,    0,    0,    0 ]

  @DF-UKS Final Energy:  -796.32484626449241

   => Energetics <=

    Nuclear Repulsion Energy =             67.7346829657599301
    One-Electron Energy =               -1233.8605361021882345
    Two-Electron Energy =                 409.1931181458583069
    DFT Exchange-Correlation Energy =     -39.5258974273816932
    Empirical Dispersion Energy =           0.0000000000000000
    VV10 Nonlocal Energy =                  0.1337861534592945
    Total Energy =                       -796.3248462644924075

  UHF NO Occupations:
  HONO-2 :    2B2u 2.0000000
  HONO-1 :    4 Ag 2.0000000
  HONO-0 :    5 Ag 2.0000000
  LUNO+0 :    6 Ag 0.0000000
  LUNO+1 :    7 Ag 0.0000000
  LUNO+2 :    5B1u 0.0000000
  LUNO+3 :    8 Ag 0.0000000


Computation Completed


Properties will be evaluated at   0.000000,   0.000000,   0.000000 [a0]

Properties computed using the SCF density matrix

  Nuclear Dipole Moment: [e a0]
     X:     0.0000      Y:     0.0000      Z:     0.0000

  Electronic Dipole Moment: [e a0]
     X:     0.0000      Y:     0.0000      Z:     0.0000

  Dipole Moment: [e a0]
     X:     0.0000      Y:     0.0000      Z:     0.0000     Total:     0.0000

  Dipole Moment: [D]
     X:     0.0000      Y:     0.0000      Z:     0.0000     Total:     0.0000


*** tstop() called on c1-9.compute.lan at Tue Feb  2 11:29:08 2021
Module time:
	user time   =      25.68 seconds =       0.43 minutes
	system time =       0.55 seconds =       0.01 minutes
	total time  =         26 seconds =       0.43 minutes
Total time:
	user time   =      25.68 seconds =       0.43 minutes
	system time =       0.55 seconds =       0.01 minutes
	total time  =         26 seconds =       0.43 minutes

  //>>>>>>>>>>>>>>>>>>>>>>>>>>>>>>>>>>>//
  //    Loading displacement 2 of 3    //
  //<<<<<<<<<<<<<<<<<<<<<<<<<<<<<<<<<<<//

*** tstart() called on c1-9.compute.lan
*** at Tue Feb  2 11:29:08 2021

   => Loading Basis Set <=

    Name: AUG-CC-PVTZ
    Role: ORBITAL
    Keyword: BASIS
    atoms 1-2 entry S          line   906 file /apps/gb/PSI4/1.4.0/share/psi4/basis/aug-cc-pvtz.gbs 


         ---------------------------------------------------------
                                   SCF
               by Justin Turney, Rob Parrish, Andy Simmonett
                          and Daniel G. A. Smith
                              UKS Reference
                        1 Threads,   9536 MiB Core
         ---------------------------------------------------------

  ==> Geometry <==

    Molecular point group: d2h
    Full point group: D_inf_h

    Geometry (in Angstrom), charge = 0, multiplicity = 1:

       Center              X                  Y                   Z               Mass       
    ------------   -----------------  -----------------  -----------------  -----------------
         S            0.000000000000     0.000000000000    -1.000330880180    31.972071174400
         S            0.000000000000     0.000000000000     1.000330880180    31.972071174400

  Running in d2h symmetry.

  Rotational constants: A = ************  B =      0.26346  C =      0.26346 [cm^-1]
  Rotational constants: A = ************  B =   7898.21736  C =   7898.21736 [MHz]
  Nuclear repulsion =   67.712278314902932

  Charge       = 0
  Multiplicity = 1
  Electrons    = 32
  Nalpha       = 16
  Nbeta        = 16

  ==> Algorithm <==

  SCF Algorithm Type is DF.
  DIIS enabled.
  MOM disabled.
  Fractional occupation disabled.
  Guess Type is SAD.
  Energy threshold   = 1.00e-08
  Density threshold  = 1.00e-08
  Integral threshold = 0.00e+00

  ==> Primary Basis <==

  Basis Set: AUG-CC-PVTZ
    Blend: AUG-CC-PVTZ
    Number of shells: 32
    Number of basis function: 100
    Number of Cartesian functions: 118
    Spherical Harmonics?: true
    Max angular momentum: 3

  ==> DFT Potential <==

   => Composite Functional: WB97M-V <= 

    wB97M-V Hyb-GGA Exchange-Correlation Functional

    N. Mardirossian and M. Head-Gordon, J. Chem. Phys. 144, 214110 (2016)

    Deriv               =              1
    GGA                 =           TRUE
    Meta                =           TRUE

    Exchange Hybrid     =           TRUE
    MP2 Hybrid          =          FALSE

   => Exchange-Correlation Functionals <=

    1.0000   wB97M-V exchange-correlation functional

   => Exact (HF) Exchange <=

    0.8500            HF,LR [omega = 0.3000]
    0.1500               HF 

   => VV10 Non-Local Parameters <=

    VV10 B              =     6.0000E+00
    VV10 C              =     1.0000E-02

   => Molecular Quadrature <=

    Radial Scheme          =       TREUTLER
    Pruning Scheme         =           NONE
    Nuclear Scheme         =       TREUTLER

    BS radius alpha        =              1
    Pruning alpha          =              1
    Radial Points          =             99
    Spherical Points       =            590
    Total Points           =         113376
    Total Blocks           =            984
    Max Points             =            255
    Max Functions          =            100
    Weights Tolerance      =       1.00E-15

   => Loading Basis Set <=

    Name: (AUG-CC-PVTZ AUX)
    Role: JKFIT
    Keyword: DF_BASIS_SCF
    atoms 1-2 entry S          line   730 file /apps/gb/PSI4/1.4.0/share/psi4/basis/aug-cc-pvtz-jkfit.gbs 

  ==> Pre-Iterations <==

   -------------------------------------------------------
    Irrep   Nso     Nmo     Nalpha   Nbeta   Ndocc  Nsocc
   -------------------------------------------------------
     Ag        21      21       0       0       0       0
     B1g        5       5       0       0       0       0
     B2g       12      12       0       0       0       0
     B3g       12      12       0       0       0       0
     Au         5       5       0       0       0       0
     B1u       21      21       0       0       0       0
     B2u       12      12       0       0       0       0
     B3u       12      12       0       0       0       0
   -------------------------------------------------------
    Total     100     100      16      16      16       0
   -------------------------------------------------------

  ==> Integral Setup <==

  ==> DiskDFJK: Density-Fitted J/K Matrices <==

    J tasked:                  Yes
    K tasked:                  Yes
    wK tasked:                 Yes
    Omega:               3.000E-01
    OpenMP threads:              1
    Integrals threads:           1
    Memory [MiB]:             6378
    Algorithm:                Core
    Integral Cache:           NONE
    Schwarz Cutoff:          1E-12
    Fitting Condition:       1E-10

   => Auxiliary Basis Set <=

  Basis Set: (AUG-CC-PVTZ AUX)
    Blend: AUG-CC-PVTZ-JKFIT
    Number of shells: 84
    Number of basis function: 292
    Number of Cartesian functions: 360
    Spherical Harmonics?: true
    Max angular momentum: 4

  Cached 100.0% of DFT collocation blocks in 0.756 [GiB].

  Minimum eigenvalue in the overlap matrix is 2.7231679894E-04.
  Using Symmetric Orthogonalization.

  SCF Guess: Superposition of Atomic Densities via on-the-fly atomic UHF.

  ==> Iterations <==

                           Total Energy        Delta E     RMS |[F,P]|

   @DF-UKS iter SAD:  -795.86832931933156   -7.95868e+02   0.00000e+00 
   @DF-UKS iter   1:  -796.30844271174317   -4.40113e-01   5.78746e-03 DIIS
   @DF-UKS iter   2:  -796.32339910953431   -1.49564e-02   1.89582e-03 DIIS
   @DF-UKS iter   3:  -796.32471202513250   -1.31292e-03   1.52778e-04 DIIS
   @DF-UKS iter   4:  -796.32477438151000   -6.23564e-05   3.14663e-05 DIIS
   @DF-UKS iter   5:  -796.32477734858253   -2.96707e-06   5.13558e-06 DIIS
   @DF-UKS iter   6:  -796.32477738160026   -3.30177e-08   1.97489e-06 DIIS
   @DF-UKS iter   7:  -796.32477738637681   -4.77655e-09   1.35856e-07 DIIS
   @DF-UKS iter   8:  -796.32477738642797   -5.11591e-11   1.76660e-08 DIIS
   @DF-UKS iter   9:  -796.32477738642888   -9.09495e-13   2.58990e-09 DIIS
  Energy and wave function converged.


  ==> Post-Iterations <==

   @Spin Contamination Metric:   8.881784197E-15
   @S^2 Expected:                0.000000000E+00
   @S^2 Observed:                8.881784197E-15
   @S   Expected:                0.000000000E+00
   @S   Observed:                0.000000000E+00

    Orbital Energies [Eh]
    ---------------------

    Alpha Occupied:                                                       

       1B1u  -89.272134     1Ag   -89.272132     2Ag    -8.180024  
       2B1u   -8.179911     1B2u   -6.091963     1B3g   -6.091937  
       3Ag    -6.088981     3B1u   -6.088628     1B3u   -6.079358  
       1B2g   -6.079342     4Ag    -0.925941     4B1u   -0.733679  
       5Ag    -0.478510     2B3u   -0.443179     2B2u   -0.436894  
       2B2g   -0.316709  

    Alpha Virtual:                                                        

       2B3g   -0.105723     5B1u    0.020580     3B2u    0.064308  
       6Ag     0.064391     3B3u    0.071589     6B1u    0.082186  
       7Ag     0.085184     3B3g    0.093704     3B2g    0.096532  
       1B1g    0.189171     8Ag     0.189443     7B1u    0.192958  
       4B2u    0.235385     4B3u    0.241565     9Ag     0.278991  
       8B1u    0.292458     1Au     0.292728     9B1u    0.347168  
       4B3g    0.352667     4B2g    0.360475     5B2u    0.450036  
       5B3u    0.465407     6B2u    0.542577    10Ag     0.550750  
      10B1u    0.555853     6B3u    0.556772     5B3g    0.558094  
      11Ag     0.563732     5B2g    0.572281     2B1g    0.576447  
      12Ag     0.580668    13Ag     0.652334    11B1u    0.660469  
       2Au     0.660573     7B2u    0.706222     7B3u    0.706293  
       6B3g    0.726685     6B2g    0.741766     3B1g    0.768785  
      14Ag     0.770101    12B1u    0.837069     7B3g    0.846433  
       7B2g    0.846529     8B2u    0.991943     8B3u    1.007921  
      13B1u    1.027657     3Au     1.034407    14B1u    1.049733  
       8B3g    1.191562     8B2g    1.206508    15Ag     1.267335  
      15B1u    1.429163     4B1g    1.760465    16Ag     1.761795  
       9B2u    1.810676    16B1u    1.813623     9B3u    1.828523  
       4Au     1.833350    17B1u    1.836386    17Ag     1.938353  
       9B3g    1.942102     9B2g    1.958515    10B2u    1.993218  
      10B3u    2.011142    18Ag     2.040714     5B1g    2.044521  
      19Ag     2.055673    11B2u    2.068340    11B3u    2.084101  
      12B2u    2.096058    12B3u    2.097140    10B2g    2.153525  
      10B3g    2.153532    18B1u    2.278129     5Au     2.279686  
      11B3g    2.283907    11B2g    2.303859    19B1u    2.402437  
      20Ag     2.494428    12B3g    2.573647    12B2g    2.593110  
      20B1u    3.638407    21Ag     4.466279    21B1u    5.293227  

    Beta Occupied:                                                        

       1B1u  -89.272134     1Ag   -89.272132     2Ag    -8.180024  
       2B1u   -8.179911     1B2u   -6.091963     1B3g   -6.091937  
       3Ag    -6.088981     3B1u   -6.088628     1B3u   -6.079358  
       1B2g   -6.079342     4Ag    -0.925941     4B1u   -0.733679  
       5Ag    -0.478510     2B3u   -0.443179     2B2u   -0.436894  
       2B2g   -0.316709  

    Beta Virtual:                                                         

       2B3g   -0.105723     5B1u    0.020580     3B2u    0.064308  
       6Ag     0.064391     3B3u    0.071589     6B1u    0.082186  
       7Ag     0.085184     3B3g    0.093704     3B2g    0.096532  
       1B1g    0.189171     8Ag     0.189443     7B1u    0.192958  
       4B2u    0.235385     4B3u    0.241565     9Ag     0.278991  
       8B1u    0.292458     1Au     0.292728     9B1u    0.347168  
       4B3g    0.352667     4B2g    0.360475     5B2u    0.450036  
       5B3u    0.465407     6B2u    0.542577    10Ag     0.550750  
      10B1u    0.555853     6B3u    0.556772     5B3g    0.558094  
      11Ag     0.563732     5B2g    0.572281     2B1g    0.576447  
      12Ag     0.580668    13Ag     0.652334    11B1u    0.660469  
       2Au     0.660573     7B2u    0.706222     7B3u    0.706293  
       6B3g    0.726685     6B2g    0.741766     3B1g    0.768785  
      14Ag     0.770101    12B1u    0.837069     7B3g    0.846433  
       7B2g    0.846529     8B2u    0.991943     8B3u    1.007921  
      13B1u    1.027657     3Au     1.034407    14B1u    1.049733  
       8B3g    1.191562     8B2g    1.206508    15Ag     1.267335  
      15B1u    1.429163     4B1g    1.760465    16Ag     1.761795  
       9B2u    1.810676    16B1u    1.813623     9B3u    1.828523  
       4Au     1.833350    17B1u    1.836386    17Ag     1.938353  
       9B3g    1.942102     9B2g    1.958515    10B2u    1.993218  
      10B3u    2.011142    18Ag     2.040714     5B1g    2.044521  
      19Ag     2.055673    11B2u    2.068340    11B3u    2.084101  
      12B2u    2.096058    12B3u    2.097140    10B2g    2.153525  
      10B3g    2.153532    18B1u    2.278129     5Au     2.279686  
      11B3g    2.283907    11B2g    2.303859    19B1u    2.402437  
      20Ag     2.494428    12B3g    2.573647    12B2g    2.593110  
      20B1u    3.638407    21Ag     4.466279    21B1u    5.293227  

    Final Occupation by Irrep:
             Ag   B1g   B2g   B3g    Au   B1u   B2u   B3u 
    DOCC [     5,    0,    2,    1,    0,    4,    2,    2 ]
    SOCC [     0,    0,    0,    0,    0,    0,    0,    0 ]

  @DF-UKS Final Energy:  -796.32477738642888

   => Energetics <=

    Nuclear Repulsion Energy =             67.7122783149029317
    One-Electron Energy =               -1233.8154417101552554
    Two-Electron Energy =                 409.1702828062561821
    DFT Exchange-Correlation Energy =     -39.5256838398006352
    Empirical Dispersion Energy =           0.0000000000000000
    VV10 Nonlocal Energy =                  0.1337870423678952
    Total Energy =                       -796.3247773864288774

  UHF NO Occupations:
  HONO-2 :    3B1u 2.0000000
  HONO-1 :    5 Ag 2.0000000
  HONO-0 :    4B1u 2.0000000
  LUNO+0 :    5B1u 0.0000000
  LUNO+1 :    3B2u 0.0000000
  LUNO+2 :    3B2g 0.0000000
  LUNO+3 :    6B1u 0.0000000


Computation Completed


Properties will be evaluated at   0.000000,   0.000000,   0.000000 [a0]

Properties computed using the SCF density matrix

  Nuclear Dipole Moment: [e a0]
     X:     0.0000      Y:     0.0000      Z:     0.0000

  Electronic Dipole Moment: [e a0]
     X:     0.0000      Y:     0.0000      Z:     0.0000

  Dipole Moment: [e a0]
     X:     0.0000      Y:     0.0000      Z:     0.0000     Total:     0.0000

  Dipole Moment: [D]
     X:     0.0000      Y:     0.0000      Z:     0.0000     Total:     0.0000


*** tstop() called on c1-9.compute.lan at Tue Feb  2 11:29:34 2021
Module time:
	user time   =      25.62 seconds =       0.43 minutes
	system time =       0.22 seconds =       0.00 minutes
	total time  =         26 seconds =       0.43 minutes
Total time:
	user time   =      51.30 seconds =       0.86 minutes
	system time =       0.77 seconds =       0.01 minutes
	total time  =         52 seconds =       0.87 minutes

  //>>>>>>>>>>>>>>>>>>>>>>>>>>>>>>>>>>>//
  //    Loading displacement 3 of 3    //
  //<<<<<<<<<<<<<<<<<<<<<<<<<<<<<<<<<<<//

*** tstart() called on c1-9.compute.lan
*** at Tue Feb  2 11:29:34 2021

   => Loading Basis Set <=

    Name: AUG-CC-PVTZ
    Role: ORBITAL
    Keyword: BASIS
    atoms 1-2 entry S          line   906 file /apps/gb/PSI4/1.4.0/share/psi4/basis/aug-cc-pvtz.gbs 


         ---------------------------------------------------------
                                   SCF
               by Justin Turney, Rob Parrish, Andy Simmonett
                          and Daniel G. A. Smith
                              UKS Reference
                        1 Threads,   9536 MiB Core
         ---------------------------------------------------------

  ==> Geometry <==

    Molecular point group: d2h
    Full point group: D_inf_h

    Geometry (in Angstrom), charge = 0, multiplicity = 1:

       Center              X                  Y                   Z               Mass       
    ------------   -----------------  -----------------  -----------------  -----------------
         S            0.000000000000     0.000000000000    -0.999669119820    31.972071174400
         S            0.000000000000     0.000000000000     0.999669119820    31.972071174400

  Running in d2h symmetry.

  Rotational constants: A = ************  B =      0.26381  C =      0.26381 [cm^-1]
  Rotational constants: A = ************  B =   7908.67773  C =   7908.67773 [MHz]
  Nuclear repulsion =   67.757102448034203

  Charge       = 0
  Multiplicity = 1
  Electrons    = 32
  Nalpha       = 16
  Nbeta        = 16

  ==> Algorithm <==

  SCF Algorithm Type is DF.
  DIIS enabled.
  MOM disabled.
  Fractional occupation disabled.
  Guess Type is SAD.
  Energy threshold   = 1.00e-08
  Density threshold  = 1.00e-08
  Integral threshold = 0.00e+00

  ==> Primary Basis <==

  Basis Set: AUG-CC-PVTZ
    Blend: AUG-CC-PVTZ
    Number of shells: 32
    Number of basis function: 100
    Number of Cartesian functions: 118
    Spherical Harmonics?: true
    Max angular momentum: 3

  ==> DFT Potential <==

   => Composite Functional: WB97M-V <= 

    wB97M-V Hyb-GGA Exchange-Correlation Functional

    N. Mardirossian and M. Head-Gordon, J. Chem. Phys. 144, 214110 (2016)

    Deriv               =              1
    GGA                 =           TRUE
    Meta                =           TRUE

    Exchange Hybrid     =           TRUE
    MP2 Hybrid          =          FALSE

   => Exchange-Correlation Functionals <=

    1.0000   wB97M-V exchange-correlation functional

   => Exact (HF) Exchange <=

    0.8500            HF,LR [omega = 0.3000]
    0.1500               HF 

   => VV10 Non-Local Parameters <=

    VV10 B              =     6.0000E+00
    VV10 C              =     1.0000E-02

   => Molecular Quadrature <=

    Radial Scheme          =       TREUTLER
    Pruning Scheme         =           NONE
    Nuclear Scheme         =       TREUTLER

    BS radius alpha        =              1
    Pruning alpha          =              1
    Radial Points          =             99
    Spherical Points       =            590
    Total Points           =         113368
    Total Blocks           =            984
    Max Points             =            255
    Max Functions          =            100
    Weights Tolerance      =       1.00E-15

   => Loading Basis Set <=

    Name: (AUG-CC-PVTZ AUX)
    Role: JKFIT
    Keyword: DF_BASIS_SCF
    atoms 1-2 entry S          line   730 file /apps/gb/PSI4/1.4.0/share/psi4/basis/aug-cc-pvtz-jkfit.gbs 

  ==> Pre-Iterations <==

   -------------------------------------------------------
    Irrep   Nso     Nmo     Nalpha   Nbeta   Ndocc  Nsocc
   -------------------------------------------------------
     Ag        21      21       0       0       0       0
     B1g        5       5       0       0       0       0
     B2g       12      12       0       0       0       0
     B3g       12      12       0       0       0       0
     Au         5       5       0       0       0       0
     B1u       21      21       0       0       0       0
     B2u       12      12       0       0       0       0
     B3u       12      12       0       0       0       0
   -------------------------------------------------------
    Total     100     100      16      16      16       0
   -------------------------------------------------------

  ==> Integral Setup <==

  ==> DiskDFJK: Density-Fitted J/K Matrices <==

    J tasked:                  Yes
    K tasked:                  Yes
    wK tasked:                 Yes
    Omega:               3.000E-01
    OpenMP threads:              1
    Integrals threads:           1
    Memory [MiB]:             6378
    Algorithm:                Core
    Integral Cache:           NONE
    Schwarz Cutoff:          1E-12
    Fitting Condition:       1E-10

   => Auxiliary Basis Set <=

  Basis Set: (AUG-CC-PVTZ AUX)
    Blend: AUG-CC-PVTZ-JKFIT
    Number of shells: 84
    Number of basis function: 292
    Number of Cartesian functions: 360
    Spherical Harmonics?: true
    Max angular momentum: 4

  Cached 100.0% of DFT collocation blocks in 0.756 [GiB].

  Minimum eigenvalue in the overlap matrix is 2.7148790077E-04.
  Using Symmetric Orthogonalization.

  SCF Guess: Superposition of Atomic Densities via on-the-fly atomic UHF.

  ==> Iterations <==

                           Total Energy        Delta E     RMS |[F,P]|

   @DF-UKS iter SAD:  -795.86999927646309   -7.95870e+02   0.00000e+00 
   @DF-UKS iter   1:  -796.30856595034811   -4.38567e-01   5.78936e-03 DIIS
   @DF-UKS iter   2:  -796.32353626771851   -1.49703e-02   1.89638e-03 DIIS
   @DF-UKS iter   3:  -796.32484938062225   -1.31311e-03   1.52941e-04 DIIS
   @DF-UKS iter   4:  -796.32491182240494   -6.24418e-05   3.13691e-05 DIIS
   @DF-UKS iter   5:  -796.32491478512372   -2.96272e-06   4.81710e-06 DIIS
   @DF-UKS iter   6:  -796.32491481579609   -3.06724e-08   1.98063e-06 DIIS
   @DF-UKS iter   7:  -796.32491482036266   -4.56657e-09   1.35818e-07 DIIS
   @DF-UKS iter   8:  -796.32491482041360   -5.09317e-11   1.77161e-08 DIIS
   @DF-UKS iter   9:  -796.32491482041451   -9.09495e-13   2.60164e-09 DIIS
  Energy and wave function converged.


  ==> Post-Iterations <==

   @Spin Contamination Metric:   1.065814104E-14
   @S^2 Expected:                0.000000000E+00
   @S^2 Observed:                1.065814104E-14
   @S   Expected:                0.000000000E+00
   @S   Observed:                0.000000000E+00

    Orbital Energies [Eh]
    ---------------------

    Alpha Occupied:                                                       

       1B1u  -89.272042     1Ag   -89.272040     2Ag    -8.179960  
       2B1u   -8.179846     1B2u   -6.091898     1B3g   -6.091871  
       3Ag    -6.088913     3B1u   -6.088558     1B3u   -6.079294  
       1B2g   -6.079277     4Ag    -0.926239     4B1u   -0.733538  
       5Ag    -0.478605     2B3u   -0.443320     2B2u   -0.437074  
       2B2g   -0.316577  

    Alpha Virtual:                                                        

       2B3g   -0.105577     5B1u    0.020716     3B2u    0.064293  
       6Ag     0.064394     3B3u    0.071576     6B1u    0.082431  
       7Ag     0.085160     3B3g    0.093713     3B2g    0.096537  
       1B1g    0.189146     8Ag     0.189417     7B1u    0.192990  
       4B2u    0.235449     4B3u    0.241620     9Ag     0.278910  
       8B1u    0.292511     1Au     0.292781     9B1u    0.347328  
       4B3g    0.352688     4B2g    0.360495     5B2u    0.449977  
       5B3u    0.465355     6B2u    0.542571    10Ag     0.550697  
      10B1u    0.555793     6B3u    0.556765     5B3g    0.558142  
      11Ag     0.563576     5B2g    0.572325     2B1g    0.576349  
      12Ag     0.580584    13Ag     0.652601    11B1u    0.660535  
       2Au     0.660636     7B2u    0.706173     7B3u    0.706244  
       6B3g    0.726901     6B2g    0.741983     3B1g    0.768967  
      14Ag     0.770285    12B1u    0.837527     7B3g    0.846538  
       7B2g    0.846633     8B2u    0.992204     8B3u    1.008179  
      13B1u    1.027981     3Au     1.034618    14B1u    1.050173  
       8B3g    1.191746     8B2g    1.206698    15Ag     1.267821  
      15B1u    1.429174     4B1g    1.760511    16Ag     1.761841  
       9B2u    1.810470    16B1u    1.813398     9B3u    1.828337  
       4Au     1.833447    17B1u    1.836466    17Ag     1.938024  
       9B3g    1.941927     9B2g    1.958337    10B2u    1.993491  
      10B3u    2.011419    18Ag     2.040342     5B1g    2.044130  
      19Ag     2.055325    11B2u    2.068400    11B3u    2.084146  
      12B2u    2.095998    12B3u    2.097091    10B2g    2.153612  
      10B3g    2.153620    18B1u    2.278596     5Au     2.280151  
      11B3g    2.284672    11B2g    2.304628    19B1u    2.403129  
      20Ag     2.496646    12B3g    2.574584    12B2g    2.594051  
      20B1u    3.639128    21Ag     4.468365    21B1u    5.293871  

    Beta Occupied:                                                        

       1B1u  -89.272042     1Ag   -89.272040     2Ag    -8.179960  
       2B1u   -8.179846     1B2u   -6.091898     1B3g   -6.091871  
       3Ag    -6.088913     3B1u   -6.088558     1B3u   -6.079294  
       1B2g   -6.079277     4Ag    -0.926239     4B1u   -0.733538  
       5Ag    -0.478605     2B3u   -0.443320     2B2u   -0.437074  
       2B2g   -0.316577  

    Beta Virtual:                                                         

       2B3g   -0.105577     5B1u    0.020716     3B2u    0.064293  
       6Ag     0.064394     3B3u    0.071576     6B1u    0.082431  
       7Ag     0.085160     3B3g    0.093713     3B2g    0.096537  
       1B1g    0.189146     8Ag     0.189417     7B1u    0.192990  
       4B2u    0.235449     4B3u    0.241620     9Ag     0.278910  
       8B1u    0.292511     1Au     0.292781     9B1u    0.347328  
       4B3g    0.352688     4B2g    0.360495     5B2u    0.449977  
       5B3u    0.465355     6B2u    0.542571    10Ag     0.550697  
      10B1u    0.555793     6B3u    0.556765     5B3g    0.558142  
      11Ag     0.563576     5B2g    0.572325     2B1g    0.576349  
      12Ag     0.580584    13Ag     0.652601    11B1u    0.660535  
       2Au     0.660636     7B2u    0.706173     7B3u    0.706244  
       6B3g    0.726901     6B2g    0.741983     3B1g    0.768967  
      14Ag     0.770285    12B1u    0.837527     7B3g    0.846538  
       7B2g    0.846633     8B2u    0.992204     8B3u    1.008179  
      13B1u    1.027981     3Au     1.034618    14B1u    1.050173  
       8B3g    1.191746     8B2g    1.206698    15Ag     1.267821  
      15B1u    1.429174     4B1g    1.760511    16Ag     1.761841  
       9B2u    1.810470    16B1u    1.813398     9B3u    1.828337  
       4Au     1.833447    17B1u    1.836466    17Ag     1.938024  
       9B3g    1.941927     9B2g    1.958337    10B2u    1.993491  
      10B3u    2.011419    18Ag     2.040342     5B1g    2.044130  
      19Ag     2.055325    11B2u    2.068400    11B3u    2.084146  
      12B2u    2.095998    12B3u    2.097091    10B2g    2.153612  
      10B3g    2.153620    18B1u    2.278596     5Au     2.280151  
      11B3g    2.284672    11B2g    2.304628    19B1u    2.403129  
      20Ag     2.496646    12B3g    2.574584    12B2g    2.594051  
      20B1u    3.639128    21Ag     4.468365    21B1u    5.293871  

    Final Occupation by Irrep:
             Ag   B1g   B2g   B3g    Au   B1u   B2u   B3u 
    DOCC [     5,    0,    2,    1,    0,    4,    2,    2 ]
    SOCC [     0,    0,    0,    0,    0,    0,    0,    0 ]

  @DF-UKS Final Energy:  -796.32491482041451

   => Energetics <=

    Nuclear Repulsion Energy =             67.7571024480342032
    One-Electron Energy =               -1233.9056595285710500
    Two-Electron Energy =                 409.2159682810080881
    DFT Exchange-Correlation Energy =     -39.5261112855864596
    Empirical Dispersion Energy =           0.0000000000000000
    VV10 Nonlocal Energy =                  0.1337852647006237
    Total Energy =                       -796.3249148204146195

  UHF NO Occupations:
  HONO-2 :    2B3u 2.0000000
  HONO-1 :    1B3g 2.0000000
  HONO-0 :    5 Ag 2.0000000
  LUNO+0 :    3B2g 0.0000000
  LUNO+1 :    5B1u 0.0000000
  LUNO+2 :    3B2u 0.0000000
  LUNO+3 :    6 Ag 0.0000000


Computation Completed


Properties will be evaluated at   0.000000,   0.000000,   0.000000 [a0]

Properties computed using the SCF density matrix

  Nuclear Dipole Moment: [e a0]
     X:     0.0000      Y:     0.0000      Z:     0.0000

  Electronic Dipole Moment: [e a0]
     X:     0.0000      Y:     0.0000      Z:     0.0000

  Dipole Moment: [e a0]
     X:     0.0000      Y:     0.0000      Z:     0.0000     Total:     0.0000

  Dipole Moment: [D]
     X:     0.0000      Y:     0.0000      Z:     0.0000     Total:     0.0000


*** tstop() called on c1-9.compute.lan at Tue Feb  2 11:30:00 2021
Module time:
	user time   =      25.74 seconds =       0.43 minutes
	system time =       0.22 seconds =       0.00 minutes
	total time  =         26 seconds =       0.43 minutes
Total time:
	user time   =      77.05 seconds =       1.28 minutes
	system time =       0.99 seconds =       0.02 minutes
	total time  =         78 seconds =       1.30 minutes

         ----------------------------------------------------------
                                   FINDIF
                     R. A. King and Jonathon Misiewicz
         ---------------------------------------------------------

  Computing gradient from energies.
    Using 3-point formula.
    Energy without displacement: -796.3248462645
    Check energies below for precision!
    Forces are for mass-weighted, symmetry-adapted cartesians (in au).

     Coord      Energy(-1)        Energy(+1)            Force
        0   -796.3247773864   -796.3249148204     -0.0137433986


-------------------------------------------------------------
  ## New Matrix (Symmetry 0) ##
  Irrep: 1 Size: 2 x 3

                 1                   2                   3

    1     0.00000000000000     0.00000000000000    -0.05494959920328
    2     0.00000000000000     0.00000000000000     0.05494959920328




			-----------------------------------------
			 OPTKING 2.0: for geometry optimizations 
			  - R.A. King,  Bethel University        
			-----------------------------------------

	Internal coordinates to be generated automatically.
	Detected frag 1 with atoms:  1 2
	---Fragment 1 Bond Connectivity---
	 1 : 2
	 2 : 1

	---Fragment 1 Geometry and Gradient---
	 S           0.0000000000        0.0000000000       -1.8897261255
	 S           0.0000000000        0.0000000000        1.8897261255
	             0.0000000000        0.0000000000       -0.0549495992
	             0.0000000000        0.0000000000        0.0549495992

	Previous optimization step data not found.  Starting new optimization.

	---Fragment 1 Intrafragment Coordinates---
	 - Coordinate -           - BOHR/RAD -       - ANG/DEG -
	 R(1,2)           =         3.779452	       2.000000

	Current energy   :      -796.3248462645

	Generating empirical Hessian (Schlegel '84) for each fragment.
	Taking RFO optimization step.
	Going to follow RFO solution 1.
	Using RFO vector 1.
	Norm of target step-size    0.15504
	Projected energy change by RFO approximation:         0.0034171490

	Back-transformation to cartesian coordinates...
	Successfully converged to displaced geometry.

	--- Internal Coordinate Step in ANG or DEG, aJ/ANG or AJ/DEG ---
	 ---------------------------------------------------------------------------
	   Coordinate                Previous        Force       Change         New 
	   ----------                --------       ------       ------       ------
	    1 R(1,2)          =      2.000000    -0.452714    -0.082043     1.917956
	 ---------------------------------------------------------------------------
	Successfully symmetrized geometry.

  ==> Convergence Check <==

  Measures of convergence in internal coordinates in au.
  Criteria marked as inactive (o), active & met (*), and active & unmet ( ).
  --------------------------------------------------------------------------------------------- ~
   Step     Total Energy     Delta E     MAX Force     RMS Force      MAX Disp      RMS Disp    ~
  --------------------------------------------------------------------------------------------- ~
    Convergence Criteria             o    2.00e-06 *    1.00e-06 *    6.00e-06 *    4.00e-06 *  ~
  --------------------------------------------------------------------------------------------- ~
      1    -796.32484626   -7.96e+02 o    5.49e-02      5.49e-02      1.55e-01      1.55e-01    ~
  ---------------------------------------------------------------------------------------------

	Writing optimization data to binary file.
	Structure for next step:
	Cartesian Geometry (in Angstrom)
	    S     0.0000000000   0.0000000000  -0.9589782498
	    S     0.0000000000   0.0000000000   0.9589782498
			--------------------------
			 OPTKING Finished Execution 
			--------------------------

    Structure for next step:
    Molecular point group: d2h
    Full point group: D_inf_h

    Geometry (in Angstrom), charge = 0, multiplicity = 1:

    S       
    S             1          r1

    r1        =    1.9179565072

gradient() will perform gradient computation by finite difference of analytic energies.

         ----------------------------------------------------------
                                   FINDIF
                     R. A. King and Jonathon Misiewicz
         ---------------------------------------------------------

  Using finite-differences of energies to determine gradients.
    Generating geometries for use with 3-point formula.
    Displacement size will be 5.00e-03.
    Number of atoms is 2.
    Number of symmetric SALCs is 1.
    Translations projected? 1. Rotations projected? 1.
    Number of geometries (including reference) is 3.

  //>>>>>>>>>>>>>>>>>>>>>>>>>>>>>>>>>>>//
  //    Loading displacement 1 of 3    //
  //<<<<<<<<<<<<<<<<<<<<<<<<<<<<<<<<<<<//

*** tstart() called on c1-9.compute.lan
*** at Tue Feb  2 11:30:00 2021

   => Loading Basis Set <=

    Name: AUG-CC-PVTZ
    Role: ORBITAL
    Keyword: BASIS
    atoms 1-2 entry S          line   906 file /apps/gb/PSI4/1.4.0/share/psi4/basis/aug-cc-pvtz.gbs 


         ---------------------------------------------------------
                                   SCF
               by Justin Turney, Rob Parrish, Andy Simmonett
                          and Daniel G. A. Smith
                              UKS Reference
                        1 Threads,   9536 MiB Core
         ---------------------------------------------------------

  ==> Geometry <==

    Molecular point group: d2h
    Full point group: D_inf_h

    Geometry (in Angstrom), charge = 0, multiplicity = 1:

       Center              X                  Y                   Z               Mass       
    ------------   -----------------  -----------------  -----------------  -----------------
         S            0.000000000000     0.000000000000    -0.958978253598    31.972071174400
         S            0.000000000000     0.000000000000     0.958978253598    31.972071174400

  Running in d2h symmetry.

  Rotational constants: A = ************  B =      0.28667  C =      0.28667 [cm^-1]
  Rotational constants: A = ************  B =   8594.07055  C =   8594.07055 [MHz]
  Nuclear repulsion =   70.632136559566121

  Charge       = 0
  Multiplicity = 1
  Electrons    = 32
  Nalpha       = 16
  Nbeta        = 16

  ==> Algorithm <==

  SCF Algorithm Type is DF.
  DIIS enabled.
  MOM disabled.
  Fractional occupation disabled.
  Guess Type is READ.
  Energy threshold   = 1.00e-08
  Density threshold  = 1.00e-08
  Integral threshold = 0.00e+00

  ==> Primary Basis <==

  Basis Set: AUG-CC-PVTZ
    Blend: AUG-CC-PVTZ
    Number of shells: 32
    Number of basis function: 100
    Number of Cartesian functions: 118
    Spherical Harmonics?: true
    Max angular momentum: 3

  ==> DFT Potential <==

   => Composite Functional: WB97M-V <= 

    wB97M-V Hyb-GGA Exchange-Correlation Functional

    N. Mardirossian and M. Head-Gordon, J. Chem. Phys. 144, 214110 (2016)

    Deriv               =              1
    GGA                 =           TRUE
    Meta                =           TRUE

    Exchange Hybrid     =           TRUE
    MP2 Hybrid          =          FALSE

   => Exchange-Correlation Functionals <=

    1.0000   wB97M-V exchange-correlation functional

   => Exact (HF) Exchange <=

    0.8500            HF,LR [omega = 0.3000]
    0.1500               HF 

   => VV10 Non-Local Parameters <=

    VV10 B              =     6.0000E+00
    VV10 C              =     1.0000E-02

   => Molecular Quadrature <=

    Radial Scheme          =       TREUTLER
    Pruning Scheme         =           NONE
    Nuclear Scheme         =       TREUTLER

    BS radius alpha        =              1
    Pruning alpha          =              1
    Radial Points          =             99
    Spherical Points       =            590
    Total Points           =         113350
    Total Blocks           =            982
    Max Points             =            254
    Max Functions          =            100
    Weights Tolerance      =       1.00E-15

   => Loading Basis Set <=

    Name: (AUG-CC-PVTZ AUX)
    Role: JKFIT
    Keyword: DF_BASIS_SCF
    atoms 1-2 entry S          line   730 file /apps/gb/PSI4/1.4.0/share/psi4/basis/aug-cc-pvtz-jkfit.gbs 

   => Loading Basis Set <=

    Name: AUG-CC-PVTZ
    Role: ORBITAL
    Keyword: BASIS
    atoms 1-2 entry S          line   906 file /apps/gb/PSI4/1.4.0/share/psi4/basis/aug-cc-pvtz.gbs 

  Reading orbitals from file 180, no projection.

  ==> Pre-Iterations <==

   -------------------------------------------------------
    Irrep   Nso     Nmo     Nalpha   Nbeta   Ndocc  Nsocc
   -------------------------------------------------------
     Ag        21      21       0       0       0       0
     B1g        5       5       0       0       0       0
     B2g       12      12       0       0       0       0
     B3g       12      12       0       0       0       0
     Au         5       5       0       0       0       0
     B1u       21      21       0       0       0       0
     B2u       12      12       0       0       0       0
     B3u       12      12       0       0       0       0
   -------------------------------------------------------
    Total     100     100      16      16      16       0
   -------------------------------------------------------

  ==> Integral Setup <==

  ==> DiskDFJK: Density-Fitted J/K Matrices <==

    J tasked:                  Yes
    K tasked:                  Yes
    wK tasked:                 Yes
    Omega:               3.000E-01
    OpenMP threads:              1
    Integrals threads:           1
    Memory [MiB]:             6377
    Algorithm:                Core
    Integral Cache:           NONE
    Schwarz Cutoff:          1E-12
    Fitting Condition:       1E-10

   => Auxiliary Basis Set <=

  Basis Set: (AUG-CC-PVTZ AUX)
    Blend: AUG-CC-PVTZ-JKFIT
    Number of shells: 84
    Number of basis function: 292
    Number of Cartesian functions: 360
    Spherical Harmonics?: true
    Max angular momentum: 4

  Cached 100.0% of DFT collocation blocks in 0.756 [GiB].

  Minimum eigenvalue in the overlap matrix is 2.2470269530E-04.
  Using Symmetric Orthogonalization.

  SCF Guess: Orbitals guess was supplied from a previous computation.

  ==> Iterations <==

                           Total Energy        Delta E     RMS |[F,P]|

   @DF-UKS iter   0:  -796.38200870417791   -7.96382e+02   5.20226e-03 
   @DF-UKS iter   1:  -796.32990377793794    5.21049e-02   7.68292e-04 DIIS
   @DF-UKS iter   2:  -796.33032875844106   -4.24981e-04   4.81111e-04 DIIS
   @DF-UKS iter   3:  -796.33051161651724   -1.82858e-04   3.21016e-05 DIIS
   @DF-UKS iter   4:  -796.33051311939039   -1.50287e-06   7.77912e-06 DIIS
   @DF-UKS iter   5:  -796.33051321995254   -1.00562e-07   1.26757e-06 DIIS
   @DF-UKS iter   6:  -796.33051322246411   -2.51157e-09   1.24193e-07 DIIS
   @DF-UKS iter   7:  -796.33051322250321   -3.91083e-11   2.29510e-08 DIIS
   @DF-UKS iter   8:  -796.33051322250446   -1.25056e-12   3.00628e-09 DIIS
  Energy and wave function converged.


  ==> Post-Iterations <==

   @Spin Contamination Metric:  -3.197442311E-14
   @S^2 Expected:                0.000000000E+00
   @S^2 Observed:               -3.197442311E-14
   @S   Expected:                0.000000000E+00
   @S   Observed:                0.000000000E+00

    Orbital Energies [Eh]
    ---------------------

    Alpha Occupied:                                                       

       1B1u  -89.265924     1Ag   -89.265922     2Ag    -8.175830  
       2B1u   -8.175658     1B2u   -6.087683     1B3g   -6.087634  
       3Ag    -6.084621     3B1u   -6.083999     1B3u   -6.075139  
       1B2g   -6.075102     4Ag    -0.945937     4B1u   -0.724612  
       5Ag    -0.484107     2B3u   -0.452704     2B2u   -0.448882  
       2B2g   -0.308068  

    Alpha Virtual:                                                        

       2B3g   -0.096311     5B1u    0.027397     3B2u    0.063279  
       6Ag     0.064618     3B3u    0.070707     7Ag     0.083704  
       3B3g    0.094262     3B2g    0.096841     6B1u    0.099290  
       1B1g    0.187518     8Ag     0.187767     7B1u    0.195283  
       4B2u    0.239379     4B3u    0.244974     9Ag     0.273669  
       8B1u    0.295764     1Au     0.296071     4B3g    0.353865  
       9B1u    0.357817     4B2g    0.361675     5B2u    0.445799  
       5B3u    0.461551     6B2u    0.542697    10Ag     0.546415  
      10B1u    0.552047    11Ag     0.554647     6B3u    0.556865  
       5B3g    0.560894     2B1g    0.570041     5B2g    0.574862  
      12Ag     0.575306     2Au     0.664684    11B1u    0.664733  
      13Ag     0.669836     7B2u    0.703223     7B3u    0.703303  
       6B3g    0.741115     6B2g    0.756240     3B1g    0.780376  
      14Ag     0.781810     7B3g    0.853034     7B2g    0.853147  
      12B1u    0.866417     8B2u    1.008050     8B3u    1.023791  
      13B1u    1.045206     3Au     1.047644    14B1u    1.082882  
       8B3g    1.204115     8B2g    1.219483    15Ag     1.297459  
      15B1u    1.425065     4B1g    1.763363    16Ag     1.764730  
       9B2u    1.791356    16B1u    1.804670     9B3u    1.810333  
       4Au     1.839815    17B1u    1.842426    17Ag     1.919486  
       9B3g    1.929728     9B2g    1.945951    18Ag     2.016406  
      10B2u    2.017652     5B1g    2.019270    19Ag     2.033109  
      10B3u    2.036099    11B2u    2.076296    11B3u    2.088422  
      12B2u    2.091544    12B3u    2.095882    10B2g    2.159575  
      10B3g    2.159607    18B1u    2.309242     5Au     2.310669  
      11B3g    2.334887    11B2g    2.355123    19B1u    2.449555  
      12B3g    2.632705    20Ag     2.638931    12B2g    2.652325  
      20B1u    3.647261    21Ag     4.608466    21B1u    5.365461  

    Beta Occupied:                                                        

       1B1u  -89.265924     1Ag   -89.265922     2Ag    -8.175830  
       2B1u   -8.175658     1B2u   -6.087683     1B3g   -6.087634  
       3Ag    -6.084621     3B1u   -6.083999     1B3u   -6.075139  
       1B2g   -6.075102     4Ag    -0.945937     4B1u   -0.724612  
       5Ag    -0.484107     2B3u   -0.452704     2B2u   -0.448882  
       2B2g   -0.308068  

    Beta Virtual:                                                         

       2B3g   -0.096311     5B1u    0.027397     3B2u    0.063279  
       6Ag     0.064618     3B3u    0.070707     7Ag     0.083704  
       3B3g    0.094262     3B2g    0.096841     6B1u    0.099290  
       1B1g    0.187518     8Ag     0.187767     7B1u    0.195283  
       4B2u    0.239379     4B3u    0.244974     9Ag     0.273669  
       8B1u    0.295764     1Au     0.296071     4B3g    0.353865  
       9B1u    0.357817     4B2g    0.361675     5B2u    0.445799  
       5B3u    0.461551     6B2u    0.542697    10Ag     0.546415  
      10B1u    0.552047    11Ag     0.554647     6B3u    0.556865  
       5B3g    0.560894     2B1g    0.570041     5B2g    0.574862  
      12Ag     0.575306     2Au     0.664684    11B1u    0.664733  
      13Ag     0.669836     7B2u    0.703223     7B3u    0.703303  
       6B3g    0.741115     6B2g    0.756240     3B1g    0.780376  
      14Ag     0.781810     7B3g    0.853034     7B2g    0.853147  
      12B1u    0.866417     8B2u    1.008050     8B3u    1.023791  
      13B1u    1.045206     3Au     1.047644    14B1u    1.082882  
       8B3g    1.204115     8B2g    1.219483    15Ag     1.297459  
      15B1u    1.425065     4B1g    1.763363    16Ag     1.764730  
       9B2u    1.791356    16B1u    1.804670     9B3u    1.810333  
       4Au     1.839815    17B1u    1.842426    17Ag     1.919486  
       9B3g    1.929728     9B2g    1.945951    18Ag     2.016406  
      10B2u    2.017652     5B1g    2.019270    19Ag     2.033109  
      10B3u    2.036099    11B2u    2.076296    11B3u    2.088422  
      12B2u    2.091544    12B3u    2.095882    10B2g    2.159575  
      10B3g    2.159607    18B1u    2.309242     5Au     2.310669  
      11B3g    2.334887    11B2g    2.355123    19B1u    2.449555  
      12B3g    2.632705    20Ag     2.638931    12B2g    2.652325  
      20B1u    3.647261    21Ag     4.608466    21B1u    5.365461  

    Final Occupation by Irrep:
             Ag   B1g   B2g   B3g    Au   B1u   B2u   B3u 
    DOCC [     5,    0,    2,    1,    0,    4,    2,    2 ]
    SOCC [     0,    0,    0,    0,    0,    0,    0,    0 ]

  @DF-UKS Final Energy:  -796.33051322250446

   => Energetics <=

    Nuclear Repulsion Energy =             70.6321365595661206
    One-Electron Energy =               -1239.6848375778147329
    Two-Electron Energy =                 412.1430934350677262
    DFT Exchange-Correlation Energy =     -39.5545825737199053
    Empirical Dispersion Energy =           0.0000000000000000
    VV10 Nonlocal Energy =                  0.1336769343964114
    Total Energy =                       -796.3305132225044645

  UHF NO Occupations:
  HONO-2 :    4B1u 2.0000000
  HONO-1 :    2B3u 2.0000000
  HONO-0 :    5 Ag 2.0000000
  LUNO+0 :    6 Ag 0.0000000
  LUNO+1 :    5B1u 0.0000000
  LUNO+2 :    3B2u 0.0000000
  LUNO+3 :    3B3u 0.0000000


Computation Completed


Properties will be evaluated at   0.000000,   0.000000,   0.000000 [a0]

Properties computed using the SCF density matrix

  Nuclear Dipole Moment: [e a0]
     X:     0.0000      Y:     0.0000      Z:     0.0000

  Electronic Dipole Moment: [e a0]
     X:     0.0000      Y:     0.0000      Z:     0.0000

  Dipole Moment: [e a0]
     X:     0.0000      Y:     0.0000      Z:     0.0000     Total:     0.0000

  Dipole Moment: [D]
     X:     0.0000      Y:     0.0000      Z:     0.0000     Total:     0.0000


*** tstop() called on c1-9.compute.lan at Tue Feb  2 11:30:23 2021
Module time:
	user time   =      23.04 seconds =       0.38 minutes
	system time =       0.17 seconds =       0.00 minutes
	total time  =         23 seconds =       0.38 minutes
Total time:
	user time   =     100.11 seconds =       1.67 minutes
	system time =       1.17 seconds =       0.02 minutes
	total time  =        101 seconds =       1.68 minutes

  //>>>>>>>>>>>>>>>>>>>>>>>>>>>>>>>>>>>//
  //    Loading displacement 2 of 3    //
  //<<<<<<<<<<<<<<<<<<<<<<<<<<<<<<<<<<<//

*** tstart() called on c1-9.compute.lan
*** at Tue Feb  2 11:30:23 2021

   => Loading Basis Set <=

    Name: AUG-CC-PVTZ
    Role: ORBITAL
    Keyword: BASIS
    atoms 1-2 entry S          line   906 file /apps/gb/PSI4/1.4.0/share/psi4/basis/aug-cc-pvtz.gbs 


         ---------------------------------------------------------
                                   SCF
               by Justin Turney, Rob Parrish, Andy Simmonett
                          and Daniel G. A. Smith
                              UKS Reference
                        1 Threads,   9536 MiB Core
         ---------------------------------------------------------

  ==> Geometry <==

    Molecular point group: d2h
    Full point group: D_inf_h

    Geometry (in Angstrom), charge = 0, multiplicity = 1:

       Center              X                  Y                   Z               Mass       
    ------------   -----------------  -----------------  -----------------  -----------------
         S            0.000000000000     0.000000000000    -0.959309133778    31.972071174400
         S            0.000000000000     0.000000000000     0.959309133778    31.972071174400

  Running in d2h symmetry.

  Rotational constants: A = ************  B =      0.28647  C =      0.28647 [cm^-1]
  Rotational constants: A = ************  B =   8588.14313  C =   8588.14313 [MHz]
  Nuclear repulsion =   70.607774470999914

  Charge       = 0
  Multiplicity = 1
  Electrons    = 32
  Nalpha       = 16
  Nbeta        = 16

  ==> Algorithm <==

  SCF Algorithm Type is DF.
  DIIS enabled.
  MOM disabled.
  Fractional occupation disabled.
  Guess Type is READ.
  Energy threshold   = 1.00e-08
  Density threshold  = 1.00e-08
  Integral threshold = 0.00e+00

  ==> Primary Basis <==

  Basis Set: AUG-CC-PVTZ
    Blend: AUG-CC-PVTZ
    Number of shells: 32
    Number of basis function: 100
    Number of Cartesian functions: 118
    Spherical Harmonics?: true
    Max angular momentum: 3

  ==> DFT Potential <==

   => Composite Functional: WB97M-V <= 

    wB97M-V Hyb-GGA Exchange-Correlation Functional

    N. Mardirossian and M. Head-Gordon, J. Chem. Phys. 144, 214110 (2016)

    Deriv               =              1
    GGA                 =           TRUE
    Meta                =           TRUE

    Exchange Hybrid     =           TRUE
    MP2 Hybrid          =          FALSE

   => Exchange-Correlation Functionals <=

    1.0000   wB97M-V exchange-correlation functional

   => Exact (HF) Exchange <=

    0.8500            HF,LR [omega = 0.3000]
    0.1500               HF 

   => VV10 Non-Local Parameters <=

    VV10 B              =     6.0000E+00
    VV10 C              =     1.0000E-02

   => Molecular Quadrature <=

    Radial Scheme          =       TREUTLER
    Pruning Scheme         =           NONE
    Nuclear Scheme         =       TREUTLER

    BS radius alpha        =              1
    Pruning alpha          =              1
    Radial Points          =             99
    Spherical Points       =            590
    Total Points           =         113350
    Total Blocks           =            982
    Max Points             =            254
    Max Functions          =            100
    Weights Tolerance      =       1.00E-15

   => Loading Basis Set <=

    Name: (AUG-CC-PVTZ AUX)
    Role: JKFIT
    Keyword: DF_BASIS_SCF
    atoms 1-2 entry S          line   730 file /apps/gb/PSI4/1.4.0/share/psi4/basis/aug-cc-pvtz-jkfit.gbs 

   => Loading Basis Set <=

    Name: AUG-CC-PVTZ
    Role: ORBITAL
    Keyword: BASIS
    atoms 1-2 entry S          line   906 file /apps/gb/PSI4/1.4.0/share/psi4/basis/aug-cc-pvtz.gbs 

  Reading orbitals from file 180, no projection.

  ==> Pre-Iterations <==

   -------------------------------------------------------
    Irrep   Nso     Nmo     Nalpha   Nbeta   Ndocc  Nsocc
   -------------------------------------------------------
     Ag        21      21       0       0       0       0
     B1g        5       5       0       0       0       0
     B2g       12      12       0       0       0       0
     B3g       12      12       0       0       0       0
     Au         5       5       0       0       0       0
     B1u       21      21       0       0       0       0
     B2u       12      12       0       0       0       0
     B3u       12      12       0       0       0       0
   -------------------------------------------------------
    Total     100     100      16      16      16       0
   -------------------------------------------------------

  ==> Integral Setup <==

  ==> DiskDFJK: Density-Fitted J/K Matrices <==

    J tasked:                  Yes
    K tasked:                  Yes
    wK tasked:                 Yes
    Omega:               3.000E-01
    OpenMP threads:              1
    Integrals threads:           1
    Memory [MiB]:             6378
    Algorithm:                Core
    Integral Cache:           NONE
    Schwarz Cutoff:          1E-12
    Fitting Condition:       1E-10

   => Auxiliary Basis Set <=

  Basis Set: (AUG-CC-PVTZ AUX)
    Blend: AUG-CC-PVTZ-JKFIT
    Number of shells: 84
    Number of basis function: 292
    Number of Cartesian functions: 360
    Spherical Harmonics?: true
    Max angular momentum: 4

  Cached 100.0% of DFT collocation blocks in 0.756 [GiB].

  Minimum eigenvalue in the overlap matrix is 2.2505110493E-04.
  Using Symmetric Orthogonalization.

  SCF Guess: Orbitals guess was supplied from a previous computation.

  ==> Iterations <==

                           Total Energy        Delta E     RMS |[F,P]|

   @DF-UKS iter   0:  -796.33010799002648   -7.96330e+02   4.47188e-05 
   @DF-UKS iter   1:  -796.33049350414728   -3.85514e-04   6.37634e-06 DIIS
   @DF-UKS iter   2:  -796.33049353343665   -2.92894e-08   3.94874e-06 DIIS
   @DF-UKS iter   3:  -796.33049354579498   -1.23583e-08   2.69737e-07 DIIS
   @DF-UKS iter   4:  -796.33049354589809   -1.03114e-10   6.88991e-08 DIIS
   @DF-UKS iter   5:  -796.33049354590582   -7.73070e-12   1.05151e-08 DIIS
   @DF-UKS iter   6:  -796.33049354590617   -3.41061e-13   1.00086e-09 DIIS
  Energy and wave function converged.


  ==> Post-Iterations <==

   @Spin Contamination Metric:   8.881784197E-15
   @S^2 Expected:                0.000000000E+00
   @S^2 Observed:                8.881784197E-15
   @S   Expected:                0.000000000E+00
   @S   Observed:                0.000000000E+00

    Orbital Energies [Eh]
    ---------------------

    Alpha Occupied:                                                       

       1B1u  -89.265978     1Ag   -89.265976     2Ag    -8.175864  
       2B1u   -8.175693     1B2u   -6.087719     1B3g   -6.087670  
       3Ag    -6.084657     3B1u   -6.084038     1B3u   -6.075174  
       1B2g   -6.075137     4Ag    -0.945766     4B1u   -0.724687  
       5Ag    -0.484065     2B3u   -0.452622     2B2u   -0.448780  
       2B2g   -0.308140  

    Alpha Virtual:                                                        

       2B3g   -0.096388     5B1u    0.027355     3B2u    0.063288  
       6Ag     0.064616     3B3u    0.070715     7Ag     0.083716  
       3B3g    0.094258     3B2g    0.096838     6B1u    0.099141  
       1B1g    0.187532     8Ag     0.187781     7B1u    0.195261  
       4B2u    0.239347     4B3u    0.244947     9Ag     0.273714  
       8B1u    0.295738     1Au     0.296044     4B3g    0.353856  
       9B1u    0.357727     4B2g    0.361667     5B2u    0.445837  
       5B3u    0.461587     6B2u    0.542692    10Ag     0.546462  
      10B1u    0.552078    11Ag     0.554710     6B3u    0.556860  
       5B3g    0.560873     2B1g    0.570095     5B2g    0.574842  
      12Ag     0.575350     2Au     0.664650    11B1u    0.664697  
      13Ag     0.669690     7B2u    0.703247     7B3u    0.703326  
       6B3g    0.740992     6B2g    0.756117     3B1g    0.780281  
      14Ag     0.781715     7B3g    0.852980     7B2g    0.853093  
      12B1u    0.866178     8B2u    1.007923     8B3u    1.023666  
      13B1u    1.045081     3Au     1.047538    14B1u    1.082575  
       8B3g    1.204005     8B2g    1.219369    15Ag     1.297222  
      15B1u    1.425141     4B1g    1.763340    16Ag     1.764707  
       9B2u    1.791551    16B1u    1.804690     9B3u    1.810519  
       4Au     1.839760    17B1u    1.842371    17Ag     1.919623  
       9B3g    1.929838     9B2g    1.946063    18Ag     2.016606  
      10B2u    2.017432     5B1g    2.019476    19Ag     2.033294  
      10B3u    2.035875    11B2u    2.076178    11B3u    2.088397  
      12B2u    2.091586    12B3u    2.095832    10B2g    2.159521  
      10B3g    2.159553    18B1u    2.308978     5Au     2.310406  
      11B3g    2.334453    11B2g    2.354688    19B1u    2.449144  
      12B3g    2.632229    20Ag     2.637731    12B2g    2.651848  
      20B1u    3.647494    21Ag     4.607232    21B1u    5.364580  

    Beta Occupied:                                                        

       1B1u  -89.265978     1Ag   -89.265976     2Ag    -8.175864  
       2B1u   -8.175693     1B2u   -6.087719     1B3g   -6.087670  
       3Ag    -6.084657     3B1u   -6.084038     1B3u   -6.075174  
       1B2g   -6.075137     4Ag    -0.945766     4B1u   -0.724687  
       5Ag    -0.484065     2B3u   -0.452622     2B2u   -0.448780  
       2B2g   -0.308140  

    Beta Virtual:                                                         

       2B3g   -0.096388     5B1u    0.027355     3B2u    0.063288  
       6Ag     0.064616     3B3u    0.070715     7Ag     0.083716  
       3B3g    0.094258     3B2g    0.096838     6B1u    0.099141  
       1B1g    0.187532     8Ag     0.187781     7B1u    0.195261  
       4B2u    0.239347     4B3u    0.244947     9Ag     0.273714  
       8B1u    0.295738     1Au     0.296044     4B3g    0.353856  
       9B1u    0.357727     4B2g    0.361667     5B2u    0.445837  
       5B3u    0.461587     6B2u    0.542692    10Ag     0.546462  
      10B1u    0.552078    11Ag     0.554710     6B3u    0.556860  
       5B3g    0.560873     2B1g    0.570095     5B2g    0.574842  
      12Ag     0.575350     2Au     0.664650    11B1u    0.664697  
      13Ag     0.669690     7B2u    0.703247     7B3u    0.703326  
       6B3g    0.740992     6B2g    0.756117     3B1g    0.780281  
      14Ag     0.781715     7B3g    0.852980     7B2g    0.853093  
      12B1u    0.866178     8B2u    1.007923     8B3u    1.023666  
      13B1u    1.045081     3Au     1.047538    14B1u    1.082575  
       8B3g    1.204005     8B2g    1.219369    15Ag     1.297222  
      15B1u    1.425141     4B1g    1.763340    16Ag     1.764707  
       9B2u    1.791551    16B1u    1.804690     9B3u    1.810519  
       4Au     1.839760    17B1u    1.842371    17Ag     1.919623  
       9B3g    1.929838     9B2g    1.946063    18Ag     2.016606  
      10B2u    2.017432     5B1g    2.019476    19Ag     2.033294  
      10B3u    2.035875    11B2u    2.076178    11B3u    2.088397  
      12B2u    2.091586    12B3u    2.095832    10B2g    2.159521  
      10B3g    2.159553    18B1u    2.308978     5Au     2.310406  
      11B3g    2.334453    11B2g    2.354688    19B1u    2.449144  
      12B3g    2.632229    20Ag     2.637731    12B2g    2.651848  
      20B1u    3.647494    21Ag     4.607232    21B1u    5.364580  

    Final Occupation by Irrep:
             Ag   B1g   B2g   B3g    Au   B1u   B2u   B3u 
    DOCC [     5,    0,    2,    1,    0,    4,    2,    2 ]
    SOCC [     0,    0,    0,    0,    0,    0,    0,    0 ]

  @DF-UKS Final Energy:  -796.33049354590617

   => Energetics <=

    Nuclear Repulsion Energy =             70.6077744709999138
    One-Electron Energy =               -1239.6359311550936582
    Two-Electron Energy =                 412.1183180099167203
    DFT Exchange-Correlation Energy =     -39.5543326798464889
    Empirical Dispersion Energy =           0.0000000000000000
    VV10 Nonlocal Energy =                  0.1336778081174841
    Total Energy =                       -796.3304935459061653

  UHF NO Occupations:
  HONO-2 :    2B3u 2.0000000
  HONO-1 :    2B2g 2.0000000
  HONO-0 :    4B1u 2.0000000
  LUNO+0 :    6 Ag 0.0000000
  LUNO+1 :    5B1u 0.0000000
  LUNO+2 :    6B1u 0.0000000
  LUNO+3 :    7B1u 0.0000000


Computation Completed


Properties will be evaluated at   0.000000,   0.000000,   0.000000 [a0]

Properties computed using the SCF density matrix

  Nuclear Dipole Moment: [e a0]
     X:     0.0000      Y:     0.0000      Z:     0.0000

  Electronic Dipole Moment: [e a0]
     X:     0.0000      Y:     0.0000      Z:     0.0000

  Dipole Moment: [e a0]
     X:     0.0000      Y:     0.0000      Z:     0.0000     Total:     0.0000

  Dipole Moment: [D]
     X:     0.0000      Y:     0.0000      Z:     0.0000     Total:     0.0000


*** tstop() called on c1-9.compute.lan at Tue Feb  2 11:30:42 2021
Module time:
	user time   =      18.54 seconds =       0.31 minutes
	system time =       0.09 seconds =       0.00 minutes
	total time  =         19 seconds =       0.32 minutes
Total time:
	user time   =     118.66 seconds =       1.98 minutes
	system time =       1.26 seconds =       0.02 minutes
	total time  =        120 seconds =       2.00 minutes

  //>>>>>>>>>>>>>>>>>>>>>>>>>>>>>>>>>>>//
  //    Loading displacement 3 of 3    //
  //<<<<<<<<<<<<<<<<<<<<<<<<<<<<<<<<<<<//

*** tstart() called on c1-9.compute.lan
*** at Tue Feb  2 11:30:42 2021

   => Loading Basis Set <=

    Name: AUG-CC-PVTZ
    Role: ORBITAL
    Keyword: BASIS
    atoms 1-2 entry S          line   906 file /apps/gb/PSI4/1.4.0/share/psi4/basis/aug-cc-pvtz.gbs 


         ---------------------------------------------------------
                                   SCF
               by Justin Turney, Rob Parrish, Andy Simmonett
                          and Daniel G. A. Smith
                              UKS Reference
                        1 Threads,   9536 MiB Core
         ---------------------------------------------------------

  ==> Geometry <==

    Molecular point group: d2h
    Full point group: D_inf_h

    Geometry (in Angstrom), charge = 0, multiplicity = 1:

       Center              X                  Y                   Z               Mass       
    ------------   -----------------  -----------------  -----------------  -----------------
         S            0.000000000000     0.000000000000    -0.958647373417    31.972071174400
         S            0.000000000000     0.000000000000     0.958647373417    31.972071174400

  Running in d2h symmetry.

  Rotational constants: A = ************  B =      0.28687  C =      0.28687 [cm^-1]
  Rotational constants: A = ************  B =   8600.00412  C =   8600.00412 [MHz]
  Nuclear repulsion =   70.656515465436527

  Charge       = 0
  Multiplicity = 1
  Electrons    = 32
  Nalpha       = 16
  Nbeta        = 16

  ==> Algorithm <==

  SCF Algorithm Type is DF.
  DIIS enabled.
  MOM disabled.
  Fractional occupation disabled.
  Guess Type is READ.
  Energy threshold   = 1.00e-08
  Density threshold  = 1.00e-08
  Integral threshold = 0.00e+00

  ==> Primary Basis <==

  Basis Set: AUG-CC-PVTZ
    Blend: AUG-CC-PVTZ
    Number of shells: 32
    Number of basis function: 100
    Number of Cartesian functions: 118
    Spherical Harmonics?: true
    Max angular momentum: 3

  ==> DFT Potential <==

   => Composite Functional: WB97M-V <= 

    wB97M-V Hyb-GGA Exchange-Correlation Functional

    N. Mardirossian and M. Head-Gordon, J. Chem. Phys. 144, 214110 (2016)

    Deriv               =              1
    GGA                 =           TRUE
    Meta                =           TRUE

    Exchange Hybrid     =           TRUE
    MP2 Hybrid          =          FALSE

   => Exchange-Correlation Functionals <=

    1.0000   wB97M-V exchange-correlation functional

   => Exact (HF) Exchange <=

    0.8500            HF,LR [omega = 0.3000]
    0.1500               HF 

   => VV10 Non-Local Parameters <=

    VV10 B              =     6.0000E+00
    VV10 C              =     1.0000E-02

   => Molecular Quadrature <=

    Radial Scheme          =       TREUTLER
    Pruning Scheme         =           NONE
    Nuclear Scheme         =       TREUTLER

    BS radius alpha        =              1
    Pruning alpha          =              1
    Radial Points          =             99
    Spherical Points       =            590
    Total Points           =         113350
    Total Blocks           =            982
    Max Points             =            254
    Max Functions          =            100
    Weights Tolerance      =       1.00E-15

   => Loading Basis Set <=

    Name: (AUG-CC-PVTZ AUX)
    Role: JKFIT
    Keyword: DF_BASIS_SCF
    atoms 1-2 entry S          line   730 file /apps/gb/PSI4/1.4.0/share/psi4/basis/aug-cc-pvtz-jkfit.gbs 

   => Loading Basis Set <=

    Name: AUG-CC-PVTZ
    Role: ORBITAL
    Keyword: BASIS
    atoms 1-2 entry S          line   906 file /apps/gb/PSI4/1.4.0/share/psi4/basis/aug-cc-pvtz.gbs 

  Reading orbitals from file 180, no projection.

  ==> Pre-Iterations <==

   -------------------------------------------------------
    Irrep   Nso     Nmo     Nalpha   Nbeta   Ndocc  Nsocc
   -------------------------------------------------------
     Ag        21      21       0       0       0       0
     B1g        5       5       0       0       0       0
     B2g       12      12       0       0       0       0
     B3g       12      12       0       0       0       0
     Au         5       5       0       0       0       0
     B1u       21      21       0       0       0       0
     B2u       12      12       0       0       0       0
     B3u       12      12       0       0       0       0
   -------------------------------------------------------
    Total     100     100      16      16      16       0
   -------------------------------------------------------

  ==> Integral Setup <==

  ==> DiskDFJK: Density-Fitted J/K Matrices <==

    J tasked:                  Yes
    K tasked:                  Yes
    wK tasked:                 Yes
    Omega:               3.000E-01
    OpenMP threads:              1
    Integrals threads:           1
    Memory [MiB]:             6377
    Algorithm:                Core
    Integral Cache:           NONE
    Schwarz Cutoff:          1E-12
    Fitting Condition:       1E-10

   => Auxiliary Basis Set <=

  Basis Set: (AUG-CC-PVTZ AUX)
    Blend: AUG-CC-PVTZ-JKFIT
    Number of shells: 84
    Number of basis function: 292
    Number of Cartesian functions: 360
    Spherical Harmonics?: true
    Max angular momentum: 4

  Cached 100.0% of DFT collocation blocks in 0.756 [GiB].

  Minimum eigenvalue in the overlap matrix is 2.2435479291E-04.
  Using Symmetric Orthogonalization.

  SCF Guess: Orbitals guess was supplied from a previous computation.

  ==> Iterations <==

                           Total Energy        Delta E     RMS |[F,P]|

   @DF-UKS iter   0:  -796.33091865663505   -7.96331e+02   4.47893e-05 
   @DF-UKS iter   1:  -796.33053237548347    3.86281e-04   6.37577e-06 DIIS
   @DF-UKS iter   2:  -796.33053240476795   -2.92845e-08   3.94857e-06 DIIS
   @DF-UKS iter   3:  -796.33053241712037   -1.23524e-08   2.69981e-07 DIIS
   @DF-UKS iter   4:  -796.33053241722359   -1.03228e-10   6.89897e-08 DIIS
[...]
                          and Daniel G. A. Smith
                              UKS Reference
                        1 Threads,   9536 MiB Core
         ---------------------------------------------------------

  ==> Geometry <==

    Molecular point group: d2h
    Full point group: D_inf_h

    Geometry (in Angstrom), charge = 0, multiplicity = 1:

       Center              X                  Y                   Z               Mass       
    ------------   -----------------  -----------------  -----------------  -----------------
         S            0.000000000000     0.000000000000    -0.946089951118    31.972071174400
         S            0.000000000000     0.000000000000     0.946089951118    31.972071174400

  Running in d2h symmetry.

  Rotational constants: A = ************  B =      0.29453  C =      0.29453 [cm^-1]
  Rotational constants: A = ************  B =   8829.81437  C =   8829.81437 [MHz]
  Nuclear repulsion =   71.594337182977199

  Charge       = 0
  Multiplicity = 1
  Electrons    = 32
  Nalpha       = 16
  Nbeta        = 16

  ==> Algorithm <==

  SCF Algorithm Type is DF.
  DIIS enabled.
  MOM disabled.
  Fractional occupation disabled.
  Guess Type is SAD.
  Energy threshold   = 1.00e-10
  Density threshold  = 1.00e-10
  Integral threshold = 0.00e+00

  ==> Primary Basis <==

  Basis Set: AUG-CC-PVTZ
    Blend: AUG-CC-PVTZ
    Number of shells: 32
    Number of basis function: 100
    Number of Cartesian functions: 118
    Spherical Harmonics?: true
    Max angular momentum: 3

  ==> DFT Potential <==

   => Composite Functional: WB97M-V <= 

    wB97M-V Hyb-GGA Exchange-Correlation Functional

    N. Mardirossian and M. Head-Gordon, J. Chem. Phys. 144, 214110 (2016)

    Deriv               =              1
    GGA                 =           TRUE
    Meta                =           TRUE

    Exchange Hybrid     =           TRUE
    MP2 Hybrid          =          FALSE

   => Exchange-Correlation Functionals <=

    1.0000   wB97M-V exchange-correlation functional

   => Exact (HF) Exchange <=

    0.8500            HF,LR [omega = 0.3000]
    0.1500               HF 

   => VV10 Non-Local Parameters <=

    VV10 B              =     6.0000E+00
    VV10 C              =     1.0000E-02

   => Molecular Quadrature <=

    Radial Scheme          =       TREUTLER
    Pruning Scheme         =           NONE
    Nuclear Scheme         =       TREUTLER

    BS radius alpha        =              1
    Pruning alpha          =              1
    Radial Points          =             99
    Spherical Points       =            590
    Total Points           =         113342
    Total Blocks           =            982
    Max Points             =            256
    Max Functions          =            100
    Weights Tolerance      =       1.00E-15

   => Loading Basis Set <=

    Name: (AUG-CC-PVTZ AUX)
    Role: JKFIT
    Keyword: DF_BASIS_SCF
    atoms 1-2 entry S          line   730 file /apps/gb/PSI4/1.4.0/share/psi4/basis/aug-cc-pvtz-jkfit.gbs 

  ==> Pre-Iterations <==

   -------------------------------------------------------
    Irrep   Nso     Nmo     Nalpha   Nbeta   Ndocc  Nsocc
   -------------------------------------------------------
     Ag        21      21       0       0       0       0
     B1g        5       5       0       0       0       0
     B2g       12      12       0       0       0       0
     B3g       12      12       0       0       0       0
     Au         5       5       0       0       0       0
     B1u       21      21       0       0       0       0
     B2u       12      12       0       0       0       0
     B3u       12      12       0       0       0       0
   -------------------------------------------------------
    Total     100     100      16      16      16       0
   -------------------------------------------------------

  ==> Integral Setup <==

  ==> DiskDFJK: Density-Fitted J/K Matrices <==

    J tasked:                  Yes
    K tasked:                  Yes
    wK tasked:                 Yes
    Omega:               3.000E-01
    OpenMP threads:              1
    Integrals threads:           1
    Memory [MiB]:             6377
    Algorithm:                Core
    Integral Cache:           NONE
    Schwarz Cutoff:          1E-12
    Fitting Condition:       1E-10

   => Auxiliary Basis Set <=

  Basis Set: (AUG-CC-PVTZ AUX)
    Blend: AUG-CC-PVTZ-JKFIT
    Number of shells: 84
    Number of basis function: 292
    Number of Cartesian functions: 360
    Spherical Harmonics?: true
    Max angular momentum: 4

  Cached 100.0% of DFT collocation blocks in 0.757 [GiB].

  Minimum eigenvalue in the overlap matrix is 2.1152230945E-04.
  Using Symmetric Orthogonalization.

  SCF Guess: Superposition of Atomic Densities via on-the-fly atomic UHF.

  ==> Iterations <==

                           Total Energy        Delta E     RMS |[F,P]|

   @DF-UKS iter SAD:  -796.02002236078920   -7.96020e+02   0.00000e+00 
   @DF-UKS iter   1:  -796.31319417918462   -2.93172e-01   5.97514e-03 DIIS
   @DF-UKS iter   2:  -796.32944477316107   -1.62506e-02   1.96308e-03 DIIS
   @DF-UKS iter   3:  -796.33081480402370   -1.37003e-03   1.76822e-04 DIIS
   @DF-UKS iter   4:  -796.33088481572145   -7.00117e-05   4.99335e-05 DIIS
   @DF-UKS iter   5:  -796.33088865032732   -3.83461e-06   1.91669e-05 DIIS
   @DF-UKS iter   6:  -796.33088915364101   -5.03314e-07   1.69631e-06 DIIS
   @DF-UKS iter   7:  -796.33088916022518   -6.58417e-09   1.63998e-07 DIIS
   @DF-UKS iter   8:  -796.33088916028396   -5.87761e-11   2.26785e-08 DIIS
   @DF-UKS iter   9:  -796.33088916028510   -1.13687e-12   3.09891e-09 DIIS
   @DF-UKS iter  10:  -796.33088916028555   -4.54747e-13   2.77168e-10 DIIS
   @DF-UKS iter  11:  -796.33088916028487    6.82121e-13   2.88004e-11 DIIS
  Energy and wave function converged.


  ==> Post-Iterations <==

   @Spin Contamination Metric:  -7.105427358E-15
   @S^2 Expected:                0.000000000E+00
   @S^2 Observed:               -7.105427358E-15
   @S   Expected:                0.000000000E+00
   @S   Observed:                0.000000000E+00

    Orbital Energies [Eh]
    ---------------------

    Alpha Occupied:                                                       

       1B1u  -89.263796     1Ag   -89.263794     2Ag    -8.174462  
       2B1u   -8.174263     1B3u   -6.086269     1B2g   -6.086210  
       3Ag    -6.083218     3B1u   -6.082476     1B2u   -6.073749  
       1B3g   -6.073702     4Ag    -0.952733     4B1u   -0.721678  
       5Ag    -0.485710     2B2u   -0.455989     2B3u   -0.452940  
       2B3g   -0.305212  

    Alpha Virtual:                                                        

       2B2g   -0.093249     5B1u    0.028926     3B3u    0.062923  
       6Ag     0.064688     3B2u    0.070396     7Ag     0.083241  
       3B2g    0.094440     3B3g    0.096938     6B1u    0.105152  
       1B1g    0.186962     8Ag     0.187203     7B1u    0.196176  
       4B3u    0.240611     4B2u    0.246015     9Ag     0.271915  
       8B1u    0.296788     1Au     0.297109     4B2g    0.354202  
       9B1u    0.361383     4B3g    0.362014     5B3u    0.444238  
       5B2u    0.460105     6B3u    0.542955    10Ag     0.544415  
      10B1u    0.550840    11Ag     0.552375     6B2u    0.557119  
       5B2g    0.561707     2B1g    0.567918    12Ag     0.573590  
       5B3g    0.575604     2Au     0.666026    11B1u    0.666122  
      13Ag     0.675577     7B3u    0.702314     7B2u    0.702397  
       6B2g    0.746001     6B3g    0.761140     3B1g    0.784066  
      14Ag     0.785540     7B2g    0.855127     7B3g    0.855246  
      12B1u    0.875741     8B3u    1.012981     8B2u    1.028634  
      13B1u    1.049996     3Au     1.051802    14B1u    1.095289  
       8B2g    1.208503     8B3g    1.224025    15Ag     1.306646  
      15B1u    1.421504     4B1g    1.764209    16Ag     1.765588  
       9B3u    1.783448     9B2u    1.802725    16B1u    1.804709  
       4Au     1.842012    17B1u    1.844627    17Ag     1.914308  
       9B2g    1.925317     9B3g    1.941474    18Ag     2.008591  
       5B1g    2.011258    10B3u    2.025798    19Ag     2.025833  
      10B2u    2.044370    11B3u    2.081967    11B2u    2.088435  
      12B3u    2.090020    12B2u    2.099990    10B3g    2.161732  
      10B2g    2.161769    18B1u    2.319709     5Au     2.321092  
      11B2g    2.352076    11B3g    2.372383    19B1u    2.466056  
      12B2g    2.651290    12B3g    2.670935    20Ag     2.686154  
      20B1u    3.634358    21Ag     4.657721    21B1u    5.404262  

    Beta Occupied:                                                        

       1B1u  -89.263796     1Ag   -89.263794     2Ag    -8.174462  
       2B1u   -8.174263     1B3u   -6.086269     1B2g   -6.086210  
       3Ag    -6.083218     3B1u   -6.082476     1B2u   -6.073749  
       1B3g   -6.073702     4Ag    -0.952733     4B1u   -0.721678  
       5Ag    -0.485710     2B2u   -0.455989     2B3u   -0.452940  
       2B3g   -0.305212  

    Beta Virtual:                                                         

       2B2g   -0.093249     5B1u    0.028926     3B3u    0.062923  
       6Ag     0.064688     3B2u    0.070396     7Ag     0.083241  
       3B2g    0.094440     3B3g    0.096938     6B1u    0.105152  
       1B1g    0.186962     8Ag     0.187203     7B1u    0.196176  
       4B3u    0.240611     4B2u    0.246015     9Ag     0.271915  
       8B1u    0.296788     1Au     0.297109     4B2g    0.354202  
       9B1u    0.361383     4B3g    0.362014     5B3u    0.444238  
       5B2u    0.460105     6B3u    0.542955    10Ag     0.544415  
      10B1u    0.550840    11Ag     0.552375     6B2u    0.557119  
       5B2g    0.561707     2B1g    0.567918    12Ag     0.573590  
       5B3g    0.575604     2Au     0.666026    11B1u    0.666122  
      13Ag     0.675577     7B3u    0.702314     7B2u    0.702397  
       6B2g    0.746001     6B3g    0.761140     3B1g    0.784066  
      14Ag     0.785540     7B2g    0.855127     7B3g    0.855246  
      12B1u    0.875741     8B3u    1.012981     8B2u    1.028634  
      13B1u    1.049996     3Au     1.051802    14B1u    1.095289  
       8B2g    1.208503     8B3g    1.224025    15Ag     1.306646  
      15B1u    1.421504     4B1g    1.764209    16Ag     1.765588  
       9B3u    1.783448     9B2u    1.802725    16B1u    1.804709  
       4Au     1.842012    17B1u    1.844627    17Ag     1.914308  
       9B2g    1.925317     9B3g    1.941474    18Ag     2.008591  
       5B1g    2.011258    10B3u    2.025798    19Ag     2.025833  
      10B2u    2.044370    11B3u    2.081967    11B2u    2.088435  
      12B3u    2.090020    12B2u    2.099990    10B3g    2.161732  
      10B2g    2.161769    18B1u    2.319709     5Au     2.321092  
      11B2g    2.352076    11B3g    2.372383    19B1u    2.466056  
      12B2g    2.651290    12B3g    2.670935    20Ag     2.686154  
      20B1u    3.634358    21Ag     4.657721    21B1u    5.404262  

    Final Occupation by Irrep:
             Ag   B1g   B2g   B3g    Au   B1u   B2u   B3u 
    DOCC [     5,    0,    1,    2,    0,    4,    2,    2 ]
    SOCC [     0,    0,    0,    0,    0,    0,    0,    0 ]

  @DF-UKS Final Energy:  -796.33088916028487

   => Energetics <=

    Nuclear Repulsion Energy =             71.5943371829771991
    One-Electron Energy =               -1241.6154364712733695
    Two-Electron Energy =                 413.1211315800981083
    DFT Exchange-Correlation Energy =     -39.5645644620119299
    Empirical Dispersion Energy =           0.0000000000000000
    VV10 Nonlocal Energy =                  0.1336430099251538
    Total Energy =                       -796.3308891602848689

  UHF NO Occupations:
  HONO-2 :    4B1u 2.0000000
  HONO-1 :    4 Ag 2.0000000
  HONO-0 :    5 Ag 2.0000000
  LUNO+0 :    5B1u 0.0000000
  LUNO+1 :    6 Ag 0.0000000
  LUNO+2 :    7 Ag 0.0000000
  LUNO+3 :    3B3g 0.0000000


Computation Completed


Properties will be evaluated at   0.000000,   0.000000,   0.000000 [a0]

Properties computed using the SCF density matrix

  Nuclear Dipole Moment: [e a0]
     X:     0.0000      Y:     0.0000      Z:     0.0000

  Electronic Dipole Moment: [e a0]
     X:     0.0000      Y:     0.0000      Z:     0.0000

  Dipole Moment: [e a0]
     X:     0.0000      Y:     0.0000      Z:     0.0000     Total:     0.0000

  Dipole Moment: [D]
     X:     0.0000      Y:     0.0000      Z:     0.0000     Total:     0.0000


*** tstop() called on c1-9.compute.lan at Tue Feb  2 11:38:29 2021
Module time:
	user time   =      30.57 seconds =       0.51 minutes
	system time =       0.19 seconds =       0.00 minutes
	total time  =         31 seconds =       0.52 minutes
Total time:
	user time   =     580.69 seconds =       9.68 minutes
	system time =       5.67 seconds =       0.09 minutes
	total time  =        587 seconds =       9.78 minutes

         ----------------------------------------------------------
                                   FINDIF
                     R. A. King and Jonathon Misiewicz
         ---------------------------------------------------------

  Computing second-derivative from energies using projected, 
  symmetry-adapted, cartesian coordinates.

  3 energies passed in, including the reference geometry.
    Using 3-point formula.
    Energy without displacement: -796.3308894318
    Check energies below for precision!
    0: -1 :      -796.3308891605
    0: 1  :      -796.3308891603

-------------------------------------------------------------


  ==> Harmonic Vibrational Analysis <==

  non-mass-weighted Hessian:       Symmetric? True   Hermitian? True   Lin Dep Dim?  5 (0)
  projection of translations (True) and rotations (True) removed 5 degrees of freedom (5)
  total projector:                 Symmetric? True   Hermitian? True   Lin Dep Dim?  5 (5)
  mass-weighted Hessian:           Symmetric? True   Hermitian? True   Lin Dep Dim?  5 (0)
  pre-proj  low-frequency mode:    0.0000  [cm^-1]
  pre-proj  low-frequency mode:    0.0000  [cm^-1]
  pre-proj  low-frequency mode:    0.0000  [cm^-1]
  pre-proj  low-frequency mode:    0.0000  [cm^-1]
  pre-proj  low-frequency mode:    0.0000  [cm^-1]
  pre-proj  all modes:['0.0000' '0.0000' '0.0000' '0.0000' '0.0000' '757.4412']
  projected mass-weighted Hessian: Symmetric? True   Hermitian? True   Lin Dep Dim?  5 (5)
  post-proj low-frequency mode:    0.0000i [cm^-1] (TR)
  post-proj low-frequency mode:    0.0000  [cm^-1] (TR)
  post-proj low-frequency mode:    0.0000  [cm^-1] (TR)
  post-proj low-frequency mode:    0.0000  [cm^-1] (TR)
  post-proj low-frequency mode:    0.0000  [cm^-1] (TR)
  post-proj  all modes:['0.0000i' '0.0000' '0.0000' '0.0000' '0.0000' '757.4412']

  Vibration                       6           
  Freq [cm^-1]                 757.4412       
  Irrep                           Ag          
  Reduced mass [u]             31.9721        
  Force const [mDyne/A]        10.8073        
  Turning point v=0 [a0]        0.0705        
  RMS dev v=0 [a0 u^1/2]        0.2819        
  Char temp [K]               1089.7893       
  ----------------------------------------------------------------------------------
      1   S                0.00  0.00  0.71   
      2   S                0.00  0.00 -0.71   

  ==> Thermochemistry Components <==

  Entropy, S
    Electronic S            0.000 [cal/(mol K)]        0.000 [J/(mol K)]       0.00000000 [mEh/K] (multiplicity = 1)
    Translational S        38.385 [cal/(mol K)]      160.603 [J/(mol K)]       0.06117054 [mEh/K] (mol. weight = 63.9441 [u], P = 101325.00 [Pa])
    Rotational S           13.640 [cal/(mol K)]       57.068 [J/(mol K)]       0.02173612 [mEh/K] (symmetry no. = 2)
    Vibrational S           0.245 [cal/(mol K)]        1.024 [J/(mol K)]       0.00039021 [mEh/K]
  Total S                  52.270 [cal/(mol K)]      218.696 [J/(mol K)]       0.08329687 [mEh/K]
  Correction S              0.000 [cal/(mol K)]        0.000 [J/(mol K)]       0.00000000 [mEh/K]

  Constant volume heat capacity, Cv
    Electronic Cv           0.000 [cal/(mol K)]        0.000 [J/(mol K)]       0.00000000 [mEh/K]
    Translational Cv        2.981 [cal/(mol K)]       12.472 [J/(mol K)]       0.00475022 [mEh/K]
    Rotational Cv           1.987 [cal/(mol K)]        8.314 [J/(mol K)]       0.00316681 [mEh/K]
    Vibrational Cv          0.723 [cal/(mol K)]        3.027 [J/(mol K)]       0.00115285 [mEh/K]
  Total Cv                  5.691 [cal/(mol K)]       23.813 [J/(mol K)]       0.00906987 [mEh/K]
  Correction Cv             0.000 [cal/(mol K)]        0.000 [J/(mol K)]       0.00000000 [mEh/K]

  Constant pressure heat capacity, Cp
    Electronic Cp           0.000 [cal/(mol K)]        0.000 [J/(mol K)]       0.00000000 [mEh/K]
    Translational Cp        4.968 [cal/(mol K)]       20.786 [J/(mol K)]       0.00791703 [mEh/K]
    Rotational Cp           1.987 [cal/(mol K)]        8.314 [J/(mol K)]       0.00316681 [mEh/K]
    Vibrational Cp          0.723 [cal/(mol K)]        3.027 [J/(mol K)]       0.00115285 [mEh/K]
  Total Cp                  7.679 [cal/(mol K)]       32.127 [J/(mol K)]       0.01223668 [mEh/K]
  Correction Cp             0.000 [cal/(mol K)]        0.000 [J/(mol K)]       0.00000000 [mEh/K]

  ==> Thermochemistry Energy Analysis <==

  Raw electronic energy, E0
  Total E0, Electronic energy at well bottom at 0 [K]                 -796.33088943 [Eh]

  Zero-point energy, ZPE_vib = Sum_i nu_i / 2
    Electronic ZPE          0.000 [kcal/mol]        0.000 [kJ/mol]       0.00000000 [Eh]
    Translational ZPE       0.000 [kcal/mol]        0.000 [kJ/mol]       0.00000000 [Eh]
    Rotational ZPE          0.000 [kcal/mol]        0.000 [kJ/mol]       0.00000000 [Eh]
    Vibrational ZPE         1.083 [kcal/mol]        4.531 [kJ/mol]       0.00172558 [Eh]         378.721 [cm^-1]
  Correction ZPE            1.083 [kcal/mol]        4.531 [kJ/mol]       0.00172558 [Eh]         378.721 [cm^-1]
  Total ZPE, Electronic energy at 0 [K]                               -796.32916385 [Eh]

  Thermal Energy, E (includes ZPE)
    Electronic E            0.000 [kcal/mol]        0.000 [kJ/mol]       0.00000000 [Eh]
    Translational E         0.889 [kcal/mol]        3.718 [kJ/mol]       0.00141628 [Eh]
    Rotational E            0.592 [kcal/mol]        2.479 [kJ/mol]       0.00094418 [Eh]
    Vibrational E           1.140 [kcal/mol]        4.771 [kJ/mol]       0.00181718 [Eh]
  Correction E              2.622 [kcal/mol]       10.968 [kJ/mol]       0.00417764 [Eh]
  Total E, Electronic energy at  298.15 [K]                           -796.32671179 [Eh]

  Enthalpy, H_trans = E_trans + k_B * T
    Electronic H            0.000 [kcal/mol]        0.000 [kJ/mol]       0.00000000 [Eh]
    Translational H         1.481 [kcal/mol]        6.197 [kJ/mol]       0.00236046 [Eh]
    Rotational H            0.592 [kcal/mol]        2.479 [kJ/mol]       0.00094418 [Eh]
    Vibrational H           1.140 [kcal/mol]        4.771 [kJ/mol]       0.00181718 [Eh]
  Correction H              3.214 [kcal/mol]       13.447 [kJ/mol]       0.00512183 [Eh]
  Total H, Enthalpy at  298.15 [K]                                    -796.32576760 [Eh]

  Gibbs free energy, G = H - T * S
    Electronic G            0.000 [kcal/mol]        0.000 [kJ/mol]       0.00000000 [Eh]
    Translational G        -9.963 [kcal/mol]      -41.686 [kJ/mol]      -0.01587754 [Eh]
    Rotational G           -3.474 [kcal/mol]      -14.536 [kJ/mol]      -0.00553644 [Eh]
    Vibrational G           1.067 [kcal/mol]        4.466 [kJ/mol]       0.00170084 [Eh]
  Correction G            -12.370 [kcal/mol]      -51.757 [kJ/mol]      -0.01971313 [Eh]
  Total G, Free enthalpy at  298.15 [K]                               -796.35060256 [Eh]

    Psi4 stopped on: Tuesday, 02 February 2021 11:38AM
    Psi4 wall time for execution: 0:09:47.47

*** Psi4 exiting successfully. Buy a developer a beer!
