
    -----------------------------------------------------------------------
          Psi4: An Open-Source Ab Initio Electronic Structure Package
                               Psi4 1.4a2.dev191 

                         Git: Rev {master} 0ab5346 


    R. M. Parrish, L. A. Burns, D. G. A. Smith, A. C. Simmonett,
    A. E. DePrince III, E. G. Hohenstein, U. Bozkaya, A. Yu. Sokolov,
    R. Di Remigio, R. M. Richard, J. F. Gonthier, A. M. James,
    H. R. McAlexander, A. Kumar, M. Saitow, X. Wang, B. P. Pritchard,
    P. Verma, H. F. Schaefer III, K. Patkowski, R. A. King, E. F. Valeev,
    F. A. Evangelista, J. M. Turney, T. D. Crawford, and C. D. Sherrill,
    J. Chem. Theory Comput. 13(7) pp 3185--3197 (2017).
    (doi: 10.1021/acs.jctc.7b00174)


                         Additional Contributions by
    P. Kraus, H. Kruse, M. H. Lechner, M. C. Schieber, R. A. Shaw,
    A. Alenaizan, R. Galvelis, Z. L. Glick, S. Lehtola, and J. P. Misiewicz

    -----------------------------------------------------------------------


    Psi4 started on: Thursday, 11 February 2021 01:57PM

    Process ID: 24097
    Host:       c1-15.compute.lan
    PSIDATADIR: /apps/gb/PSI4/1.4.0/share/psi4
    Memory:     500.0 MiB
    Threads:    1
    
  ==> Input File <==

--------------------------------------------------------------------------
memory 16 GB

molecule  {
0 3
S
S 1 r1
S 1 r2 2 a1
S 2 r3 1 a2 3 d1
r1 = 2.051
r2 = 2.024
r3 = 2.024
a1 = 105.1
a2 = 105.1
d1 = 180.0
}

set {
reference uks
basis aug-cc-pvtz
g_convergence gau_verytight
dft_spherical_points 590
dft_radial_points 99
}

optimize('wb97x-d')
frequencies('wb97x-d')

--------------------------------------------------------------------------

  Memory set to  14.901 GiB by Python driver.
gradient() will perform analytic gradient computation.

*** tstart() called on c1-15.compute.lan
*** at Thu Feb 11 13:57:48 2021

   => Loading Basis Set <=

    Name: AUG-CC-PVTZ
    Role: ORBITAL
    Keyword: BASIS
    atoms 1-4 entry S          line   906 file /apps/gb/PSI4/1.4.0/share/psi4/basis/aug-cc-pvtz.gbs 

   => WB97X-D: Empirical Dispersion <=

    Chai and Head-Gordon Dispersion Correction
    Chai, J.-D.; Head-Gordon, M. (2010), J. Chem. Phys., 132: 6615-6620

        s6 =       1.000000


         ---------------------------------------------------------
                                   SCF
               by Justin Turney, Rob Parrish, Andy Simmonett
                          and Daniel G. A. Smith
                              UKS Reference
                        1 Threads,  15258 MiB Core
         ---------------------------------------------------------

  ==> Geometry <==

    Molecular point group: c2h
    Full point group: C2h

    Geometry (in Angstrom), charge = 0, multiplicity = 3:

       Center              X                  Y                   Z               Mass       
    ------------   -----------------  -----------------  -----------------  -----------------
         S            0.000000000000     1.025500000000     0.000000000000    31.972071174400
         S            0.000000000000    -1.025500000000     0.000000000000    31.972071174400
         S           -1.954116604900     1.552761125493     0.000000000000    31.972071174400
         S            1.954116604900    -1.552761125493     0.000000000000    31.972071174400

  Running in c2h symmetry.

  Rotational constants: A =      0.43854  B =      0.03946  C =      0.03621 [cm^-1]
  Rotational constants: A =  13147.07888  B =   1183.12687  C =   1085.44584 [MHz]
  Nuclear repulsion =  310.800725288192893

  Charge       = 0
  Multiplicity = 3
  Electrons    = 64
  Nalpha       = 33
  Nbeta        = 31

  ==> Algorithm <==

  SCF Algorithm Type is DF.
  DIIS enabled.
  MOM disabled.
  Fractional occupation disabled.
  Guess Type is SAD.
  Energy threshold   = 1.00e-08
  Density threshold  = 1.00e-08
  Integral threshold = 0.00e+00

  ==> Primary Basis <==

  Basis Set: AUG-CC-PVTZ
    Blend: AUG-CC-PVTZ
    Number of shells: 64
    Number of basis function: 200
    Number of Cartesian functions: 236
    Spherical Harmonics?: true
    Max angular momentum: 3

  ==> DFT Potential <==

   => Composite Functional: WB97X-D <= 

    wB97X-D Hyb-GGA Exchange-Correlation Functional

    J.-D. Chai and M. Head-Gordon, Phys. Chem. Chem. Phys. 10, 6615 (2008)

    Deriv               =              1
    GGA                 =           TRUE
    Meta                =          FALSE

    Exchange Hybrid     =           TRUE
    MP2 Hybrid          =          FALSE

   => Exchange-Correlation Functionals <=

    1.0000   wB97D range-separated functional

   => Exact (HF) Exchange <=

    0.7780            HF,LR [omega = 0.2000]
    0.2220               HF 

   => Molecular Quadrature <=

    Radial Scheme          =       TREUTLER
    Pruning Scheme         =           NONE
    Nuclear Scheme         =       TREUTLER

    BS radius alpha        =              1
    Pruning alpha          =              1
    Radial Points          =             99
    Spherical Points       =            590
    Total Points           =         225782
    Total Blocks           =           1817
    Max Points             =            256
    Max Functions          =            200
    Weights Tolerance      =       1.00E-15

   => Loading Basis Set <=

    Name: (AUG-CC-PVTZ AUX)
    Role: JKFIT
    Keyword: DF_BASIS_SCF
    atoms 1-4 entry S          line   730 file /apps/gb/PSI4/1.4.0/share/psi4/basis/aug-cc-pvtz-jkfit.gbs 

  ==> Pre-Iterations <==

   -------------------------------------------------------
    Irrep   Nso     Nmo     Nalpha   Nbeta   Ndocc  Nsocc
   -------------------------------------------------------
     Ag        66      66       0       0       0       0
     Bg        34      34       0       0       0       0
     Au        34      34       0       0       0       0
     Bu        66      66       0       0       0       0
   -------------------------------------------------------
    Total     200     200      33      31      31       2
   -------------------------------------------------------

  ==> Integral Setup <==

  ==> DiskDFJK: Density-Fitted J/K Matrices <==

    J tasked:                  Yes
    K tasked:                  Yes
    wK tasked:                 Yes
    Omega:               2.000E-01
    OpenMP threads:              1
    Integrals threads:           1
    Memory [MiB]:            10314
    Algorithm:                Core
    Integral Cache:           NONE
    Schwarz Cutoff:          1E-12
    Fitting Condition:       1E-10

   => Auxiliary Basis Set <=

  Basis Set: (AUG-CC-PVTZ AUX)
    Blend: AUG-CC-PVTZ-JKFIT
    Number of shells: 168
    Number of basis function: 584
    Number of Cartesian functions: 720
    Spherical Harmonics?: true
    Max angular momentum: 4

  Cached 100.0% of DFT collocation blocks in 1.103 [GiB].

  Minimum eigenvalue in the overlap matrix is 2.1178000566E-04.
  Using Symmetric Orthogonalization.

  SCF Guess: Superposition of Atomic Densities via on-the-fly atomic UHF.

  ==> Iterations <==

                           Total Energy        Delta E     RMS |[F,P]|

   @DF-UKS iter SAD: -1592.36496285517114   -1.59236e+03   0.00000e+00 
   @DF-UKS iter   1: -1592.71597685406482   -3.51014e-01   3.86310e-03 DIIS
   @DF-UKS iter   2: -1592.71507649223372    9.00362e-04   3.49810e-03 DIIS
   @DF-UKS iter   3: -1592.78384597238050   -6.87695e-02   8.94874e-04 DIIS
   @DF-UKS iter   4: -1592.78917111530222   -5.32514e-03   1.59407e-04 DIIS
   @DF-UKS iter   5: -1592.78982265111995   -6.51536e-04   6.27172e-05 DIIS
   @DF-UKS iter   6: -1592.78997919612380   -1.56545e-04   3.59953e-05 DIIS
   @DF-UKS iter   7: -1592.79004508549588   -6.58894e-05   1.36060e-05 DIIS
   @DF-UKS iter   8: -1592.79005268436867   -7.59887e-06   2.72687e-06 DIIS
   @DF-UKS iter   9: -1592.79005294645640   -2.62088e-07   8.32850e-07 DIIS
   @DF-UKS iter  10: -1592.79005295931779   -1.28614e-08   2.84591e-07 DIIS
   @DF-UKS iter  11: -1592.79005296129344   -1.97565e-09   8.35090e-08 DIIS
   @DF-UKS iter  12: -1592.79005296150581   -2.12367e-10   2.67611e-08 DIIS
   @DF-UKS iter  13: -1592.79005296152900   -2.31921e-11   1.12088e-08 DIIS
   @DF-UKS iter  14: -1592.79005296153309   -4.09273e-12   3.70200e-09 DIIS
  Energy and wave function converged.


  ==> Post-Iterations <==

   @Spin Contamination Metric:   1.187297962E-02
   @S^2 Expected:                2.000000000E+00
   @S^2 Observed:                2.011872980E+00
   @S   Expected:                1.000000000E+00
   @S   Observed:                1.000000000E+00

    Orbital Energies [Eh]
    ---------------------

    Alpha Occupied:                                                       

       1Bu   -89.147665     1Ag   -89.147662     2Bu   -89.104208  
       2Ag   -89.104207     3Ag    -8.151735     3Bu    -8.151660  
       4Ag    -8.109646     4Bu    -8.109646     5Ag    -6.100806  
       5Bu    -6.100575     6Ag    -6.096680     6Bu    -6.096627  
       1Au    -6.096108     1Bg    -6.096092     2Bg    -6.061119  
       2Au    -6.061119     7Ag    -6.058784     7Bu    -6.058783  
       8Ag    -6.048905     8Bu    -6.048905     9Ag    -0.981029  
       9Bu    -0.899372    10Ag    -0.790361    10Bu    -0.708732  
      11Ag    -0.532840    11Bu    -0.511022     3Au    -0.502616  
       3Bg    -0.440971    12Ag    -0.440324    12Bu    -0.380094  
       4Au    -0.366498    13Ag    -0.348484     4Bg    -0.316707  

    Alpha Virtual:                                                        

      13Bu    -0.008147    14Bu     0.005005    14Ag     0.028821  
      15Bu     0.064931    16Bu     0.070494    15Ag     0.072357  
       5Au     0.085126    16Ag     0.091137    17Ag     0.104396  
       5Bg     0.105266    18Ag     0.106618     6Bg     0.110471  
      17Bu     0.123130    18Bu     0.134627     6Au     0.134909  
      19Ag     0.165356     7Au     0.177513    19Bu     0.185314  
       7Bg     0.191041    20Ag     0.202614    20Bu     0.212317  
      21Bu     0.233645    21Ag     0.251279     8Bg     0.261544  
      22Bu     0.265347     8Au     0.266862    22Ag     0.270110  
      23Bu     0.290176     9Au     0.292129    23Ag     0.300494  
      24Ag     0.339541     9Bg     0.354271    24Bu     0.356845  
      25Ag     0.367911    10Bg     0.380015    10Au     0.383797  
      25Bu     0.387414    26Bu     0.420297    26Ag     0.442351  
      11Au     0.445001    11Bg     0.511451    27Bu     0.525656  
      27Ag     0.533830    12Au     0.534752    12Bg     0.548615  
      28Ag     0.552274    28Bu     0.554842    13Au     0.559036  
      29Ag     0.567400    14Au     0.574761    29Bu     0.575194  
      30Ag     0.583089    31Ag     0.595021    30Bu     0.602556  
      13Bg     0.613595    31Bu     0.619165    32Ag     0.632261  
      15Au     0.635943    14Bg     0.650016    33Ag     0.654151  
      32Bu     0.654480    34Ag     0.670570    33Bu     0.675702  
      15Bg     0.686911    16Bg     0.719003    35Ag     0.722931  
      16Au     0.730658    34Bu     0.748260    17Bg     0.766983  
      17Au     0.773568    36Ag     0.776343    35Bu     0.786102  
      37Ag     0.804756    36Bu     0.814281    18Bg     0.823462  
      38Ag     0.826794    37Bu     0.839748    18Au     0.894038  
      38Bu     0.919047    39Ag     0.980834    19Au     0.999740  
      39Bu     1.004981    19Bg     1.010272    20Au     1.020713  
      40Ag     1.035531    40Bu     1.044480    20Bg     1.092304  
      41Bu     1.121940    41Ag     1.122574    42Ag     1.152365  
      21Au     1.164142    42Bu     1.171682    21Bg     1.192294  
      22Au     1.207998    43Bu     1.218207    22Bg     1.228124  
      43Ag     1.244909    44Ag     1.293284    45Ag     1.357382  
      44Bu     1.359537    45Bu     1.406187    46Ag     1.505968  
      46Bu     1.534902    23Au     1.789447    47Ag     1.805555  
      23Bg     1.824897    24Bg     1.827547    47Bu     1.832804  
      48Ag     1.839139    48Bu     1.859290    24Au     1.860917  
      25Au     1.882543    49Bu     1.892509    50Bu     1.895570  
      49Ag     1.899049    25Bg     1.916582    26Au     1.964974  
      50Ag     1.985448    51Bu     1.994070    27Au     1.996227  
      26Bg     2.004348    51Ag     2.017656    28Au     2.024551  
      52Bu     2.027035    27Bg     2.033976    52Ag     2.046246  
      29Au     2.051091    28Bg     2.057829    53Ag     2.083706  
      53Bu     2.113926    30Au     2.138949    54Ag     2.143869  
      55Ag     2.161068    29Bg     2.162264    54Bu     2.173068  
      55Bu     2.177192    56Bu     2.213571    31Au     2.215856  
      30Bg     2.235558    31Bg     2.253695    57Bu     2.271863  
      56Ag     2.280332    32Au     2.313580    57Ag     2.316403  
      33Au     2.321468    58Ag     2.324166    32Bg     2.329269  
      58Bu     2.344880    59Bu     2.394897    59Ag     2.426169  
      60Bu     2.431378    60Ag     2.499885    61Ag     2.519712  
      61Bu     2.520088    33Bg     2.547019    34Au     2.566284  
      34Bg     2.589190    62Ag     2.640144    62Bu     2.698046  
      63Ag     2.754041    63Bu     3.649625    64Ag     3.666404  
      64Bu     3.704534    65Ag     4.793122    65Bu     5.232401  
      66Ag     5.631428    66Bu     5.818507  

    Beta Occupied:                                                        

       1Bu   -89.145647     1Ag   -89.145644     2Bu   -89.100298  
       2Ag   -89.100296     3Ag    -8.149634     3Bu    -8.149553  
       4Bu    -8.105791     4Ag    -8.105789     5Ag    -6.099539  
       5Bu    -6.099314     6Ag    -6.095542     6Bu    -6.095486  
       1Au    -6.088793     1Bg    -6.088774     7Ag    -6.056314  
       7Bu    -6.056314     2Bg    -6.047916     2Au    -6.047916  
       8Ag    -6.046222     8Bu    -6.046221     9Ag    -0.967728  
       9Bu    -0.880845    10Ag    -0.758688    10Bu    -0.678947  
      11Ag    -0.523303    11Bu    -0.500336     3Au    -0.462122  
      12Ag    -0.431040     3Bg    -0.374761    12Bu    -0.369380  
      13Ag    -0.338336  

    Beta Virtual:                                                         

       4Au    -0.114805     4Bg    -0.074523    13Bu     0.001746  
      14Bu     0.011192    14Ag     0.035635    15Bu     0.067406  
      16Bu     0.072607    15Ag     0.073402     5Au     0.089180  
      16Ag     0.094115    17Ag     0.105173    18Ag     0.107125  
       5Bg     0.112396     6Bg     0.115340    17Bu     0.124355  
      18Bu     0.136098     6Au     0.141687    19Ag     0.166954  
       7Au     0.185285    19Bu     0.185808     7Bg     0.204674  
      20Ag     0.205077    20Bu     0.212721    21Bu     0.235460  
      21Ag     0.255000    22Bu     0.269657     8Bg     0.271653  
      22Ag     0.276571     8Au     0.278704    23Bu     0.295040  
       9Au     0.304670    23Ag     0.304981    24Ag     0.341215  
      24Bu     0.358780     9Bg     0.359025    25Ag     0.370154  
      10Au     0.387405    10Bg     0.387701    25Bu     0.389323  
      26Bu     0.422119    26Ag     0.444962    11Au     0.455535  
      11Bg     0.516113    27Bu     0.528065    27Ag     0.536551  
      12Au     0.543180    28Ag     0.555496    28Bu     0.556075  
      12Bg     0.559067    13Au     0.569110    29Ag     0.569525  
      29Bu     0.580460    14Au     0.584562    30Ag     0.586307  
      31Ag     0.599434    30Bu     0.609198    13Bg     0.624831  
      31Bu     0.624898    32Ag     0.642964    15Au     0.652851  
      14Bg     0.660760    33Ag     0.661388    32Bu     0.669556  
      34Ag     0.678094    33Bu     0.682380    15Bg     0.702125  
      35Ag     0.728004    16Bg     0.732667    16Au     0.747957  
      34Bu     0.752985    17Bg     0.775421    17Au     0.776309  
      36Ag     0.779766    35Bu     0.792654    37Ag     0.814089  
      36Bu     0.817841    18Bg     0.826955    38Ag     0.830667  
      37Bu     0.842554    18Au     0.899811    38Bu     0.924306  
      39Ag     0.983629    19Au     1.005351    39Bu     1.007678  
      19Bg     1.014899    20Au     1.024885    40Ag     1.038576  
      40Bu     1.048668    20Bg     1.099894    41Ag     1.124159  
      41Bu     1.124520    42Ag     1.155407    21Au     1.168304  
      42Bu     1.172901    21Bg     1.198793    22Au     1.217699  
      43Bu     1.221579    22Bg     1.237579    43Ag     1.248639  
      44Ag     1.295185    44Bu     1.361880    45Ag     1.368406  
      45Bu     1.417693    46Ag     1.514406    46Bu     1.545726  
      23Au     1.804514    47Ag     1.814084    23Bg     1.838494  
      24Bg     1.843472    47Bu     1.848583    48Ag     1.856032  
      48Bu     1.864680    24Au     1.874627    25Au     1.895740  
      49Bu     1.896765    50Bu     1.901353    49Ag     1.902540  
      25Bg     1.931754    26Au     1.981878    50Ag     1.994864  
      51Bu     2.000724    27Au     2.006795    26Bg     2.023702  
      51Ag     2.027281    52Bu     2.038565    28Au     2.046445  
      27Bg     2.049315    52Ag     2.057348    28Bg     2.070464  
      29Au     2.076342    53Ag     2.091129    53Bu     2.126800  
      54Ag     2.152565    30Au     2.162003    54Bu     2.179322  
      55Ag     2.182613    55Bu     2.192513    29Bg     2.192533  
      56Bu     2.222684    31Au     2.235364    30Bg     2.256234  
      31Bg     2.271544    57Bu     2.284702    56Ag     2.293296  
      57Ag     2.325774    58Ag     2.330238    32Au     2.331307  
      33Au     2.335053    32Bg     2.345640    58Bu     2.355712  
      59Bu     2.407073    59Ag     2.432669    60Bu     2.437570  
      60Ag     2.504905    61Bu     2.525775    61Ag     2.527333  
      33Bg     2.560292    34Au     2.586274    34Bg     2.609188  
      62Ag     2.643145    62Bu     2.702013    63Ag     2.758387  
      63Bu     3.654297    64Ag     3.670919    64Bu     3.708797  
      65Ag     4.803803    65Bu     5.243718    66Ag     5.637936  
      66Bu     5.823681  

    Final Occupation by Irrep:
             Ag    Bg    Au    Bu 
    DOCC [    13,    3,    3,   12 ]
    SOCC [     0,    1,    1,    0 ]

  @DF-UKS Final Energy: -1592.79005296153309

   => Energetics <=

    Nuclear Repulsion Energy =            310.8007252881928935
    One-Electron Energy =               -2818.2411961080579204
    Two-Electron Energy =                 989.6396533244139846
    DFT Exchange-Correlation Energy =     -74.9887225477165913
    Empirical Dispersion Energy =          -0.0005129183655409
    VV10 Nonlocal Energy =                  0.0000000000000000
    Total Energy =                      -1592.7900529615330925

  UHF NO Occupations:
  HONO-2 :    3 Bg 1.9974197
  HONO-1 :    4 Au 1.0000000
  HONO-0 :    4 Bg 1.0000000
  LUNO+0 :    5 Bg 0.0025803
  LUNO+1 :    5 Au 0.0009455
  LUNO+2 :   13 Bu 0.0007816
  LUNO+3 :   14 Ag 0.0007680


Computation Completed


Properties will be evaluated at   0.000000,   0.000000,   0.000000 [a0]

Properties computed using the SCF density matrix

  Nuclear Dipole Moment: [e a0]
     X:     0.0000      Y:     0.0000      Z:     0.0000

  Electronic Dipole Moment: [e a0]
     X:     0.0000      Y:     0.0000      Z:     0.0000

  Dipole Moment: [e a0]
     X:     0.0000      Y:     0.0000      Z:     0.0000     Total:     0.0000

  Dipole Moment: [D]
     X:     0.0000      Y:     0.0000      Z:     0.0000     Total:     0.0000


*** tstop() called on c1-15.compute.lan at Thu Feb 11 13:59:00 2021
Module time:
	user time   =      70.09 seconds =       1.17 minutes
	system time =       1.02 seconds =       0.02 minutes
	total time  =         72 seconds =       1.20 minutes
Total time:
	user time   =      70.09 seconds =       1.17 minutes
	system time =       1.02 seconds =       0.02 minutes
	total time  =         72 seconds =       1.20 minutes

*** tstart() called on c1-15.compute.lan
*** at Thu Feb 11 13:59:00 2021


         ------------------------------------------------------------
                                   SCF GRAD                          
                          Rob Parrish, Justin Turney,                
                       Andy Simmonett, and Alex Sokolov              
         ------------------------------------------------------------

  ==> Geometry <==

    Molecular point group: c2h
    Full point group: C2h

    Geometry (in Angstrom), charge = 0, multiplicity = 3:

       Center              X                  Y                   Z               Mass       
    ------------   -----------------  -----------------  -----------------  -----------------
         S            0.000000000000     1.025500000000     0.000000000000    31.972071174400
         S            0.000000000000    -1.025500000000     0.000000000000    31.972071174400
         S           -1.954116604900     1.552761125493     0.000000000000    31.972071174400
         S            1.954116604900    -1.552761125493     0.000000000000    31.972071174400

  Nuclear repulsion =  310.800725288192893

  ==> Basis Set <==

  Basis Set: AUG-CC-PVTZ
    Blend: AUG-CC-PVTZ
    Number of shells: 64
    Number of basis function: 200
    Number of Cartesian functions: 236
    Spherical Harmonics?: true
    Max angular momentum: 3

  ==> DFJKGrad: Density-Fitted SCF Gradients <==

    Gradient:                    1
    J tasked:                  Yes
    K tasked:                  Yes
    wK tasked:                 Yes
    Omega:               2.000E-01
    OpenMP threads:              1
    Integrals threads:           1
    Memory [MiB]:            11444
    Schwarz Cutoff:          0E+00
    Fitting Condition:       1E-10

   => Auxiliary Basis Set <=

  Basis Set: (AUG-CC-PVTZ AUX)
    Blend: AUG-CC-PVTZ-JKFIT
    Number of shells: 168
    Number of basis function: 584
    Number of Cartesian functions: 720
    Spherical Harmonics?: true
    Max angular momentum: 4

  ==> DFT Potential <==

   => Composite Functional: WB97X-D <= 

    wB97X-D Hyb-GGA Exchange-Correlation Functional

    J.-D. Chai and M. Head-Gordon, Phys. Chem. Chem. Phys. 10, 6615 (2008)

    Deriv               =              1
    GGA                 =           TRUE
    Meta                =          FALSE

    Exchange Hybrid     =           TRUE
    MP2 Hybrid          =          FALSE

   => Exchange-Correlation Functionals <=

    1.0000   wB97D range-separated functional

   => Exact (HF) Exchange <=

    0.7780            HF,LR [omega = 0.2000]
    0.2220               HF 

   => Molecular Quadrature <=

    Radial Scheme          =       TREUTLER
    Pruning Scheme         =           NONE
    Nuclear Scheme         =       TREUTLER

    BS radius alpha        =              1
    Pruning alpha          =              1
    Radial Points          =             99
    Spherical Points       =            590
    Total Points           =         225782
    Total Blocks           =           1817
    Max Points             =            256
    Max Functions          =            200
    Weights Tolerance      =       1.00E-15


  -Total Gradient:
     Atom            X                  Y                   Z
    ------   -----------------  -----------------  -----------------
       1        0.019525226330    -0.035829358771    -0.000000000000
       2       -0.019525226330     0.035829358771     0.000000000000
       3       -0.026887176754     0.011118871534     0.000000000000
       4        0.026887176754    -0.011118871534     0.000000000000


*** tstop() called on c1-15.compute.lan at Thu Feb 11 13:59:24 2021
Module time:
	user time   =      24.25 seconds =       0.40 minutes
	system time =       0.23 seconds =       0.00 minutes
	total time  =         24 seconds =       0.40 minutes
Total time:
	user time   =      94.35 seconds =       1.57 minutes
	system time =       1.25 seconds =       0.02 minutes
	total time  =         96 seconds =       1.60 minutes

			-----------------------------------------
			 OPTKING 2.0: for geometry optimizations 
			  - R.A. King,  Bethel University        
			-----------------------------------------

	Internal coordinates to be generated automatically.
	Detected frag 1 with atoms:  1 2 3 4
	---Fragment 1 Bond Connectivity---
	 1 : 2 3
	 2 : 1 4
	 3 : 1
	 4 : 2

	---Fragment 1 Geometry and Gradient---
	 S           0.0000000000        1.9379141417        0.0000000000
	 S           0.0000000000       -1.9379141417        0.0000000000
	 S          -3.6927452005        2.9342932654        0.0000000000
	 S           3.6927452005       -2.9342932654        0.0000000000
	             0.0195252263       -0.0358293588       -0.0000000000
	            -0.0195252263        0.0358293588        0.0000000000
	            -0.0268871768        0.0111188715        0.0000000000
	             0.0268871768       -0.0111188715        0.0000000000

	Previous optimization step data not found.  Starting new optimization.

	---Fragment 1 Intrafragment Coordinates---
	 - Coordinate -           - BOHR/RAD -       - ANG/DEG -
	 R(1,2)           =         3.875828	       2.051000
	 R(1,3)           =         3.824806	       2.024000
	 R(2,4)           =         3.824806	       2.024000
	 B(1,2,4)         =         1.834341	     105.100000
	 B(2,1,3)         =         1.834341	     105.100000
	 D(3,1,2,4)       =         3.141593	     180.000000

	Current energy   :     -1592.7900529615

	Generating empirical Hessian (Schlegel '84) for each fragment.
	Taking RFO optimization step.
	Going to follow RFO solution 1.
	Using RFO vector 1.
	Norm of target step-size    0.16796
	Projected energy change by RFO approximation:        -0.0031128349

	Back-transformation to cartesian coordinates...
	Successfully converged to displaced geometry.

	--- Internal Coordinate Step in ANG or DEG, aJ/ANG or AJ/DEG ---
	 ---------------------------------------------------------------------------
	   Coordinate                Previous        Force       Change         New 
	   ----------                --------       ------       ------       ------
	    1 R(1,2)          =      2.051000     0.203586     0.043279     2.094279
	    2 R(1,3)          =      2.024000    -0.237733    -0.046488     1.977512
	    3 R(2,4)          =      2.024000    -0.237733    -0.046488     1.977512
	    4 B(1,2,4)        =    105.100000    -0.001086    -3.160388   101.939612
	    5 B(2,1,3)        =    105.100000    -0.001086    -3.160388   101.939612
	    6 D(3,1,2,4)      =    180.000000    -0.000000     0.000000   180.000000
	 ---------------------------------------------------------------------------
	Successfully symmetrized geometry.

  ==> Convergence Check <==

  Measures of convergence in internal coordinates in au.
  Criteria marked as inactive (o), active & met (*), and active & unmet ( ).
  --------------------------------------------------------------------------------------------- ~
   Step     Total Energy     Delta E     MAX Force     RMS Force      MAX Disp      RMS Disp    ~
  --------------------------------------------------------------------------------------------- ~
    Convergence Criteria             o    2.00e-06 *    1.00e-06 *    6.00e-06 *    4.00e-06 *  ~
  --------------------------------------------------------------------------------------------- ~
      1   -1592.79005296   -1.59e+03 o    2.89e-02      2.11e-02      8.78e-02      6.86e-02    ~
  ---------------------------------------------------------------------------------------------

	Writing optimization data to binary file.
	Structure for next step:
	Cartesian Geometry (in Angstrom)
	    S     0.0233206752   1.0468796377   0.0000000000
	    S    -0.0233206752  -1.0468796377   0.0000000000
	    S    -1.9018190341   1.4989751878   0.0000000000
	    S     1.9018190341  -1.4989751878   0.0000000000
			--------------------------
			 OPTKING Finished Execution 
			--------------------------

    Structure for next step:
    Molecular point group: c2h
    Full point group: C2h

    Geometry (in Angstrom), charge = 0, multiplicity = 3:

    S       
    S             1          r1
    S             1          r2      2          a1
    S             2          r3      1          a2      3          d1

    a1        =  101.9396124304
    a2        =  101.9396124304
    d1        = -180.0000000000
    r1        =    2.0942787192
    r2        =    1.9775119006
    r3        =    1.9775119006

gradient() will perform analytic gradient computation.

*** tstart() called on c1-15.compute.lan
*** at Thu Feb 11 13:59:24 2021

   => Loading Basis Set <=

    Name: AUG-CC-PVTZ
    Role: ORBITAL
    Keyword: BASIS
    atoms 1-4 entry S          line   906 file /apps/gb/PSI4/1.4.0/share/psi4/basis/aug-cc-pvtz.gbs 

   => WB97X-D: Empirical Dispersion <=

    Chai and Head-Gordon Dispersion Correction
    Chai, J.-D.; Head-Gordon, M. (2010), J. Chem. Phys., 132: 6615-6620

        s6 =       1.000000


         ---------------------------------------------------------
                                   SCF
               by Justin Turney, Rob Parrish, Andy Simmonett
                          and Daniel G. A. Smith
                              UKS Reference
                        1 Threads,  15258 MiB Core
         ---------------------------------------------------------

  ==> Geometry <==

    Molecular point group: c2h
    Full point group: C2h

    Geometry (in Angstrom), charge = 0, multiplicity = 3:

       Center              X                  Y                   Z               Mass       
    ------------   -----------------  -----------------  -----------------  -----------------
         S            0.000000000000     1.047139359590     0.000000000000    31.972071174400
         S            0.000000000000    -1.047139359590     0.000000000000    31.972071174400
         S           -1.934730780787     1.456248297508     0.000000000000    31.972071174400
         S            1.934730780787    -1.456248297508     0.000000000000    31.972071174400

  Running in c2h symmetry.

  Rotational constants: A =      0.40529  B =      0.04178  C =      0.03788 [cm^-1]
  Rotational constants: A =  12150.29332  B =   1252.55283  C =   1135.49645 [MHz]
  Nuclear repulsion =  315.302109316134647

  Charge       = 0
  Multiplicity = 3
  Electrons    = 64
  Nalpha       = 33
  Nbeta        = 31

  ==> Algorithm <==

  SCF Algorithm Type is DF.
  DIIS enabled.
  MOM disabled.
  Fractional occupation disabled.
  Guess Type is READ.
  Energy threshold   = 1.00e-08
  Density threshold  = 1.00e-08
  Integral threshold = 0.00e+00

  ==> Primary Basis <==

  Basis Set: AUG-CC-PVTZ
    Blend: AUG-CC-PVTZ
    Number of shells: 64
    Number of basis function: 200
    Number of Cartesian functions: 236
    Spherical Harmonics?: true
    Max angular momentum: 3

  ==> DFT Potential <==

   => Composite Functional: WB97X-D <= 

    wB97X-D Hyb-GGA Exchange-Correlation Functional

    J.-D. Chai and M. Head-Gordon, Phys. Chem. Chem. Phys. 10, 6615 (2008)

    Deriv               =              1
    GGA                 =           TRUE
    Meta                =          FALSE

    Exchange Hybrid     =           TRUE
    MP2 Hybrid          =          FALSE

   => Exchange-Correlation Functionals <=

    1.0000   wB97D range-separated functional

   => Exact (HF) Exchange <=

    0.7780            HF,LR [omega = 0.2000]
    0.2220               HF 

   => Molecular Quadrature <=

    Radial Scheme          =       TREUTLER
    Pruning Scheme         =           NONE
    Nuclear Scheme         =       TREUTLER

    BS radius alpha        =              1
    Pruning alpha          =              1
    Radial Points          =             99
    Spherical Points       =            590
    Total Points           =         225862
    Total Blocks           =           1841
    Max Points             =            256
    Max Functions          =            200
    Weights Tolerance      =       1.00E-15

   => Loading Basis Set <=

    Name: (AUG-CC-PVTZ AUX)
    Role: JKFIT
    Keyword: DF_BASIS_SCF
    atoms 1-4 entry S          line   730 file /apps/gb/PSI4/1.4.0/share/psi4/basis/aug-cc-pvtz-jkfit.gbs 

   => Loading Basis Set <=

    Name: AUG-CC-PVTZ
    Role: ORBITAL
    Keyword: BASIS
    atoms 1-4 entry S          line   906 file /apps/gb/PSI4/1.4.0/share/psi4/basis/aug-cc-pvtz.gbs 

  Reading orbitals from file 180, no projection.

  ==> Pre-Iterations <==

   -------------------------------------------------------
    Irrep   Nso     Nmo     Nalpha   Nbeta   Ndocc  Nsocc
   -------------------------------------------------------
     Ag        66      66       0       0       0       0
     Bg        34      34       0       0       0       0
     Au        34      34       0       0       0       0
     Bu        66      66       0       0       0       0
   -------------------------------------------------------
    Total     200     200      33      31      31       2
   -------------------------------------------------------

  ==> Integral Setup <==

  ==> DiskDFJK: Density-Fitted J/K Matrices <==

    J tasked:                  Yes
    K tasked:                  Yes
    wK tasked:                 Yes
    Omega:               2.000E-01
    OpenMP threads:              1
    Integrals threads:           1
    Memory [MiB]:            10308
    Algorithm:                Core
    Integral Cache:           NONE
    Schwarz Cutoff:          1E-12
    Fitting Condition:       1E-10

   => Auxiliary Basis Set <=

  Basis Set: (AUG-CC-PVTZ AUX)
    Blend: AUG-CC-PVTZ-JKFIT
    Number of shells: 168
    Number of basis function: 584
    Number of Cartesian functions: 720
    Spherical Harmonics?: true
    Max angular momentum: 4

  Cached 100.0% of DFT collocation blocks in 1.109 [GiB].

  Minimum eigenvalue in the overlap matrix is 1.9954454970E-04.
  Using Symmetric Orthogonalization.

  SCF Guess: Orbitals guess was supplied from a previous computation.

  ==> Iterations <==

                           Total Energy        Delta E     RMS |[F,P]|

   @DF-UKS iter   0: -1592.82147407716980   -1.59282e+03   2.44605e-03 
   @DF-UKS iter   1: -1592.79484259996411    2.66315e-02   2.97347e-04 DIIS
   @DF-UKS iter   2: -1592.79549285982102   -6.50260e-04   1.82031e-04 DIIS
   @DF-UKS iter   3: -1592.79570625343922   -2.13394e-04   4.46470e-05 DIIS
   @DF-UKS iter   4: -1592.79572901251231   -2.27591e-05   2.76328e-05 DIIS
   @DF-UKS iter   5: -1592.79574027886952   -1.12664e-05   7.69372e-06 DIIS
   @DF-UKS iter   6: -1592.79574154857482   -1.26971e-06   2.76393e-06 DIIS
   @DF-UKS iter   7: -1592.79574187610024   -3.27525e-07   1.05126e-06 DIIS
   @DF-UKS iter   8: -1592.79574193211329   -5.60131e-08   5.59124e-07 DIIS
   @DF-UKS iter   9: -1592.79574194361612   -1.15028e-08   1.94485e-07 DIIS
   @DF-UKS iter  10: -1592.79574194483189   -1.21577e-09   2.86057e-08 DIIS
   @DF-UKS iter  11: -1592.79574194485349   -2.16005e-11   9.63904e-09 DIIS
  Energy and wave function converged.


  ==> Post-Iterations <==

   @Spin Contamination Metric:   1.179229995E-02
   @S^2 Expected:                2.000000000E+00
   @S^2 Observed:                2.011792300E+00
   @S   Expected:                1.000000000E+00
   @S   Observed:                1.000000000E+00

    Orbital Energies [Eh]
    ---------------------

    Alpha Occupied:                                                       

       1Bu   -89.147426     1Ag   -89.147422     2Bu   -89.098780  
       2Ag   -89.098778     3Ag    -8.151556     3Bu    -8.151497  
       4Bu    -8.105371     4Ag    -8.105371     5Ag    -6.100463  
       5Bu    -6.100285     6Ag    -6.096553     6Bu    -6.096511  
       1Au    -6.096109     1Bg    -6.096098     2Au    -6.056684  
       2Bg    -6.056684     7Ag    -6.054177     7Bu    -6.054177  
       8Ag    -6.044843     8Bu    -6.044843     9Ag    -0.983150  
       9Bu    -0.909626    10Ag    -0.781069    10Bu    -0.708707  
      11Ag    -0.533008    11Bu    -0.511223     3Au    -0.504128  
      12Ag    -0.447334     3Bg    -0.445166    12Bu    -0.381499  
       4Au    -0.358793    13Ag    -0.343492     4Bg    -0.316574  

    Alpha Virtual:                                                        

      13Bu    -0.009632    14Bu     0.015601    14Ag     0.036254  
      15Bu     0.066152    16Bu     0.071902    15Ag     0.072699  
       5Au     0.084698    16Ag     0.091926    17Ag     0.103892  
       5Bg     0.105950    18Ag     0.106152     6Bg     0.109597  
      17Bu     0.123841    18Bu     0.134560     6Au     0.135881  
      19Ag     0.167013     7Au     0.174834    19Bu     0.183346  
       7Bg     0.194767    20Ag     0.204367    20Bu     0.211463  
      21Bu     0.235753    21Ag     0.251193    22Bu     0.262741  
       8Au     0.262812     8Bg     0.263429    22Ag     0.275946  
      23Bu     0.287221     9Au     0.300495    23Ag     0.300739  
      24Ag     0.341607     9Bg     0.355688    24Bu     0.360323  
      25Ag     0.373356    10Bg     0.378119    25Bu     0.385499  
      10Au     0.386203    26Bu     0.423434    26Ag     0.441928  
      11Au     0.446485    11Bg     0.509935    27Bu     0.526976  
      27Ag     0.532725    12Au     0.536940    12Bg     0.550068  
      28Bu     0.554136    28Ag     0.555412    13Au     0.557480  
      29Ag     0.567841    29Bu     0.574035    14Au     0.574067  
      30Ag     0.585120    31Ag     0.593927    30Bu     0.599744  
      13Bg     0.610271    31Bu     0.620132    32Ag     0.629477  
      15Au     0.640308    33Ag     0.655711    14Bg     0.660545  
      32Bu     0.663959    34Ag     0.668614    33Bu     0.680736  
      15Bg     0.690488    16Bg     0.714338    35Ag     0.729621  
      16Au     0.737138    34Bu     0.751522    17Bg     0.770963  
      17Au     0.773583    36Ag     0.776798    35Bu     0.780257  
      36Bu     0.822281    37Ag     0.824994    18Bg     0.827330  
      38Ag     0.832861    37Bu     0.850161    18Au     0.912128  
      38Bu     0.930566    39Ag     0.989093    39Bu     0.996212  
      19Au     1.010493    19Bg     1.010962    20Au     1.017764  
      40Ag     1.045729    40Bu     1.061419    20Bg     1.117199  
      41Ag     1.125522    41Bu     1.147824    21Au     1.159036  
      42Bu     1.159967    42Ag     1.167254    21Bg     1.186223  
      22Au     1.214649    43Bu     1.216607    22Bg     1.235511  
      43Ag     1.254566    44Ag     1.281481    44Bu     1.359597  
      45Ag     1.378980    45Bu     1.418449    46Ag     1.488878  
      46Bu     1.540757    23Au     1.788978    47Ag     1.803016  
      23Bg     1.823885    24Bg     1.835826    47Bu     1.841126  
      48Ag     1.843939    48Bu     1.851986    24Au     1.857153  
      25Au     1.882354    49Bu     1.886236    49Ag     1.890933  
      50Bu     1.916256    25Bg     1.921050    26Au     1.962236  
      51Bu     1.988565    50Ag     1.989270    27Au     1.997526  
      26Bg     1.999629    51Ag     2.013170    52Bu     2.019928  
      28Au     2.033199    27Bg     2.034991    28Bg     2.053542  
      52Ag     2.055213    29Au     2.060293    53Ag     2.085457  
      53Bu     2.109697    30Au     2.134712    54Ag     2.155168  
      29Bg     2.172699    54Bu     2.175264    55Bu     2.179335  
      55Ag     2.191836    31Au     2.219021    30Bg     2.222903  
      56Bu     2.226498    31Bg     2.274024    57Bu     2.292152  
      56Ag     2.295056    57Ag     2.312394    58Ag     2.321962  
      32Au     2.325310    58Bu     2.331697    32Bg     2.342928  
      33Au     2.348134    59Ag     2.410450    59Bu     2.419986  
      60Bu     2.424381    60Ag     2.511946    33Bg     2.517377  
      61Ag     2.571783    61Bu     2.578493    34Au     2.596802  
      34Bg     2.626026    62Ag     2.627748    62Bu     2.759400  
      63Ag     2.791703    63Bu     3.607630    64Ag     3.697806  
      64Bu     3.716214    65Ag     4.781408    65Bu     5.330257  
      66Ag     5.615837    66Bu     5.857152  

    Beta Occupied:                                                        

       1Bu   -89.145354     1Ag   -89.145351     2Bu   -89.094947  
       2Ag   -89.094945     3Ag    -8.149407     3Bu    -8.149343  
       4Bu    -8.101569     4Ag    -8.101567     5Ag    -6.099161  
       5Bu    -6.098987     6Ag    -6.095365     6Bu    -6.095322  
       1Au    -6.088630     1Bg    -6.088617     7Ag    -6.051759  
       7Bu    -6.051759     2Au    -6.043691     2Bg    -6.043691  
       8Ag    -6.042204     8Bu    -6.042203     9Ag    -0.969647  
       9Bu    -0.892233    10Ag    -0.749866    10Bu    -0.678832  
      11Ag    -0.523701    11Bu    -0.499746     3Au    -0.462605  
      12Ag    -0.437715     3Bg    -0.382725    12Bu    -0.370945  
      13Ag    -0.333500  

    Beta Virtual:                                                         

       4Au    -0.107261     4Bg    -0.073388    13Bu    -0.003146  
      14Bu     0.024384    14Ag     0.042673    15Bu     0.067437  
      15Ag     0.073790    16Bu     0.076651     5Au     0.088876  
      16Ag     0.095195    17Ag     0.104709    18Ag     0.106805  
       5Bg     0.111977     6Bg     0.116410    17Bu     0.125188  
      18Bu     0.136143     6Au     0.143230    19Ag     0.168744  
       7Au     0.182412    19Bu     0.183800    20Ag     0.207052  
       7Bg     0.209197    20Bu     0.212176    21Bu     0.237352  
      21Ag     0.254819    22Bu     0.266951     8Bg     0.273735  
       8Au     0.274464    22Ag     0.282080    23Bu     0.292140  
      23Ag     0.305769     9Au     0.313258    24Ag     0.342998  
       9Bg     0.359853    24Bu     0.362608    25Ag     0.375710  
      10Bg     0.386262    25Bu     0.387130    10Au     0.389513  
      26Bu     0.425318    26Ag     0.444662    11Au     0.456758  
      11Bg     0.514271    27Bu     0.528744    27Ag     0.535486  
      12Au     0.546114    28Bu     0.555454    28Ag     0.558755  
      12Bg     0.560347    13Au     0.567143    29Ag     0.570413  
      29Bu     0.578739    14Au     0.583852    30Ag     0.587594  
      31Ag     0.598717    30Bu     0.606878    13Bg     0.620435  
      31Bu     0.626537    32Ag     0.638561    15Au     0.657058  
      33Ag     0.662866    14Bg     0.669573    32Bu     0.676096  
      34Ag     0.677570    33Bu     0.688910    15Bg     0.707325  
      16Bg     0.728159    35Ag     0.733793    16Au     0.753378  
      34Bu     0.756814    17Au     0.776598    17Bg     0.780236  
      36Ag     0.780549    35Bu     0.787723    36Bu     0.824201  
      18Bg     0.830750    37Ag     0.832936    38Ag     0.838278  
      37Bu     0.853294    18Au     0.918069    38Bu     0.935415  
      39Ag     0.991786    39Bu     0.998548    19Au     1.014805  
      19Bg     1.015656    20Au     1.023407    40Ag     1.048980  
      40Bu     1.066242    20Bg     1.124992    41Ag     1.127037  
      41Bu     1.149858    42Bu     1.161835    21Au     1.162548  
      42Ag     1.170422    21Bg     1.192532    43Bu     1.220183  
      22Au     1.225419    22Bg     1.245036    43Ag     1.257982  
      44Ag     1.284026    44Bu     1.361837    45Ag     1.390273  
      45Bu     1.430893    46Ag     1.496726    46Bu     1.551516  
      23Au     1.804105    47Ag     1.811372    23Bg     1.835850  
      24Bg     1.852441    47Bu     1.853950    48Bu     1.858784  
      48Ag     1.860748    24Au     1.870680    49Bu     1.893228  
      49Ag     1.894310    25Au     1.895479    50Bu     1.919786  
      25Bg     1.936071    26Au     1.979570    51Bu     1.996373  
      50Ag     1.998050    27Au     2.008444    26Bg     2.017890  
      51Ag     2.023953    52Bu     2.030752    27Bg     2.050232  
      28Au     2.056938    52Ag     2.068059    28Bg     2.068811  
      29Au     2.083028    53Ag     2.091943    53Bu     2.120561  
      30Au     2.154978    54Ag     2.175482    54Bu     2.183916  
      55Bu     2.194176    55Ag     2.199288    29Bg     2.201028  
      56Bu     2.234358    31Au     2.238802    30Bg     2.242987  
      31Bg     2.293425    56Ag     2.300393    57Bu     2.304974  
      57Ag     2.323815    58Ag     2.334822    32Au     2.338138  
      58Bu     2.342928    32Bg     2.358615    33Au     2.368176  
      59Ag     2.416086    59Bu     2.426183    60Bu     2.435760  
      60Ag     2.517452    33Bg     2.530915    61Ag     2.579285  
      61Bu     2.584787    34Au     2.616593    62Ag     2.630494  
      34Bg     2.646112    62Bu     2.763335    63Ag     2.796097  
      63Bu     3.612700    64Ag     3.702218    64Bu     3.720366  
      65Ag     4.791657    65Bu     5.341277    66Ag     5.622629  
      66Bu     5.862401  

    Final Occupation by Irrep:
             Ag    Bg    Au    Bu 
    DOCC [    13,    3,    3,   12 ]
    SOCC [     0,    1,    1,    0 ]

  @DF-UKS Final Energy: -1592.79574194485349

   => Energetics <=

    Nuclear Repulsion Energy =            315.3021093161346471
    One-Electron Energy =               -2827.3163944323496253
    Two-Electron Energy =                 994.2271251729922596
    DFT Exchange-Correlation Energy =     -75.0080844573508614
    Empirical Dispersion Energy =          -0.0004975442796634
    VV10 Nonlocal Energy =                  0.0000000000000000
    Total Energy =                      -1592.7957419448532619

  UHF NO Occupations:
  HONO-2 :    3 Bg 1.9974888
  HONO-1 :    4 Au 1.0000000
  HONO-0 :    4 Bg 1.0000000
  LUNO+0 :    5 Bg 0.0025112
  LUNO+1 :    5 Au 0.0010191
  LUNO+2 :   13 Bu 0.0007712
  LUNO+3 :   14 Ag 0.0007500


Computation Completed


Properties will be evaluated at   0.000000,   0.000000,   0.000000 [a0]

Properties computed using the SCF density matrix

  Nuclear Dipole Moment: [e a0]
     X:     0.0000      Y:     0.0000      Z:     0.0000

  Electronic Dipole Moment: [e a0]
     X:     0.0000      Y:     0.0000      Z:     0.0000

  Dipole Moment: [e a0]
     X:     0.0000      Y:     0.0000      Z:     0.0000     Total:     0.0000

  Dipole Moment: [D]
     X:     0.0000      Y:     0.0000      Z:     0.0000     Total:     0.0000


*** tstop() called on c1-15.compute.lan at Thu Feb 11 14:00:22 2021
Module time:
	user time   =      57.60 seconds =       0.96 minutes
	system time =       0.48 seconds =       0.01 minutes
	total time  =         58 seconds =       0.97 minutes
Total time:
	user time   =     151.97 seconds =       2.53 minutes
	system time =       1.74 seconds =       0.03 minutes
	total time  =        154 seconds =       2.57 minutes

*** tstart() called on c1-15.compute.lan
*** at Thu Feb 11 14:00:22 2021


         ------------------------------------------------------------
                                   SCF GRAD                          
                          Rob Parrish, Justin Turney,                
                       Andy Simmonett, and Alex Sokolov              
         ------------------------------------------------------------

  ==> Geometry <==

    Molecular point group: c2h
    Full point group: C2h

    Geometry (in Angstrom), charge = 0, multiplicity = 3:

       Center              X                  Y                   Z               Mass       
    ------------   -----------------  -----------------  -----------------  -----------------
         S            0.000000000000     1.047139359590     0.000000000000    31.972071174400
         S            0.000000000000    -1.047139359590     0.000000000000    31.972071174400
         S           -1.934730780787     1.456248297508     0.000000000000    31.972071174400
         S            1.934730780787    -1.456248297508     0.000000000000    31.972071174400

  Nuclear repulsion =  315.302109316134647

  ==> Basis Set <==

  Basis Set: AUG-CC-PVTZ
    Blend: AUG-CC-PVTZ
    Number of shells: 64
    Number of basis function: 200
    Number of Cartesian functions: 236
    Spherical Harmonics?: true
    Max angular momentum: 3

  ==> DFJKGrad: Density-Fitted SCF Gradients <==

    Gradient:                    1
    J tasked:                  Yes
    K tasked:                  Yes
    wK tasked:                 Yes
    Omega:               2.000E-01
    OpenMP threads:              1
    Integrals threads:           1
    Memory [MiB]:            11444
    Schwarz Cutoff:          0E+00
    Fitting Condition:       1E-10

   => Auxiliary Basis Set <=

  Basis Set: (AUG-CC-PVTZ AUX)
    Blend: AUG-CC-PVTZ-JKFIT
    Number of shells: 168
    Number of basis function: 584
    Number of Cartesian functions: 720
    Spherical Harmonics?: true
    Max angular momentum: 4

  ==> DFT Potential <==

   => Composite Functional: WB97X-D <= 

    wB97X-D Hyb-GGA Exchange-Correlation Functional

    J.-D. Chai and M. Head-Gordon, Phys. Chem. Chem. Phys. 10, 6615 (2008)

    Deriv               =              1
    GGA                 =           TRUE
    Meta                =          FALSE

    Exchange Hybrid     =           TRUE
    MP2 Hybrid          =          FALSE

   => Exchange-Correlation Functionals <=

    1.0000   wB97D range-separated functional

   => Exact (HF) Exchange <=

    0.7780            HF,LR [omega = 0.2000]
    0.2220               HF 

   => Molecular Quadrature <=

    Radial Scheme          =       TREUTLER
    Pruning Scheme         =           NONE
    Nuclear Scheme         =       TREUTLER

    BS radius alpha        =              1
    Pruning alpha          =              1
    Radial Points          =             99
    Spherical Points       =            590
    Total Points           =         225862
    Total Blocks           =           1841
    Max Points             =            256
    Max Functions          =            200
    Weights Tolerance      =       1.00E-15


  -Total Gradient:
     Atom            X                  Y                   Z
    ------   -----------------  -----------------  -----------------
       1        0.014438132298    -0.015138031721     0.000000000000
       2       -0.014438132298     0.015138031721     0.000000000000
       3       -0.011434392496     0.000808936900    -0.000000000000
       4        0.011434392496    -0.000808936900    -0.000000000000


*** tstop() called on c1-15.compute.lan at Thu Feb 11 14:00:47 2021
Module time:
	user time   =      24.19 seconds =       0.40 minutes
	system time =       0.25 seconds =       0.00 minutes
	total time  =         25 seconds =       0.42 minutes
Total time:
	user time   =     176.16 seconds =       2.94 minutes
	system time =       1.99 seconds =       0.03 minutes
	total time  =        179 seconds =       2.98 minutes

			-----------------------------------------
			 OPTKING 2.0: for geometry optimizations 
			  - R.A. King,  Bethel University        
			-----------------------------------------

	Previous internal coordinate definitions found.
	---Fragment 1 Geometry and Gradient---
	 S           0.0000000000        1.9788066048        0.0000000000
	 S           0.0000000000       -1.9788066048        0.0000000000
	 S          -3.6561113022        2.7519104530        0.0000000000
	 S           3.6561113022       -2.7519104530        0.0000000000
	             0.0144381323       -0.0151380317        0.0000000000
	            -0.0144381323        0.0151380317        0.0000000000
	            -0.0114343925        0.0008089369       -0.0000000000
	             0.0114343925       -0.0008089369       -0.0000000000

	---Fragment 1 Intrafragment Coordinates---
	 - Coordinate -           - BOHR/RAD -       - ANG/DEG -
	 R(1,2)           =         3.957613	       2.094279
	 R(1,3)           =         3.736956	       1.977512
	 R(2,4)           =         3.736956	       1.977512
	 B(1,2,4)         =         1.779182	     101.939612
	 B(2,1,3)         =         1.779182	     101.939612
	 D(3,1,2,4)       =         3.141593	     180.000000

	Current energy   :     -1592.7957419449

	Energy change for the previous step:
		Projected    :        -0.0031128349
		Actual       :        -0.0056889833
	Energy ratio indicates good step: Trust radius increased to 1.000e+00.


	Performing BFGS update.
	Previous computed or guess Hessian on step 1.
	Steps to be used in Hessian update: 1
	Taking RFO optimization step.
	Going to follow RFO solution 1.
	Using RFO vector 1.
	Norm of target step-size    0.13306
	Projected energy change by RFO approximation:        -0.0073211920

	Back-transformation to cartesian coordinates...
	Successfully converged to displaced geometry.

	--- Internal Coordinate Step in ANG or DEG, aJ/ANG or AJ/DEG ---
	 ---------------------------------------------------------------------------
	   Coordinate                Previous        Force       Change         New 
	   ----------                --------       ------       ------       ------
	    1 R(1,2)          =      2.094279     0.118128     0.045428     2.139706
	    2 R(1,3)          =      1.977512    -0.093585    -0.036431     1.941081
	    3 R(2,4)          =      1.977512    -0.093585    -0.036431     1.941081
	    4 B(1,2,4)        =    101.939612     0.000451     1.185433   103.125045
	    5 B(2,1,3)        =    101.939612     0.000451     1.185433   103.125045
	    6 D(3,1,2,4)      =    180.000000     0.000000     0.000000   180.000000
	 ---------------------------------------------------------------------------
	Successfully symmetrized geometry.

  ==> Convergence Check <==

  Measures of convergence in internal coordinates in au.
  Criteria marked as inactive (o), active & met (*), and active & unmet ( ).
  ---------------------------------------------------------------------------------------------
   Step     Total Energy     Delta E     MAX Force     RMS Force      MAX Disp      RMS Disp   
  ---------------------------------------------------------------------------------------------
    Convergence Criteria             o    2.00e-06 *    1.00e-06 *    6.00e-06 *    4.00e-06 *
  ---------------------------------------------------------------------------------------------
      2   -1592.79574194   -5.69e-03 o    1.43e-02      9.43e-03      8.58e-02      5.43e-02    ~
  ---------------------------------------------------------------------------------------------

	Writing optimization data to binary file.
	Structure for next step:
	Cartesian Geometry (in Angstrom)
	    S    -0.0260255049   1.0695366241   0.0000000000
	    S     0.0260255049  -1.0695366241   0.0000000000
	    S    -1.9265625085   1.4641954789   0.0000000000
	    S     1.9265625085  -1.4641954789   0.0000000000
			--------------------------
			 OPTKING Finished Execution 
			--------------------------

    Structure for next step:
    Molecular point group: c2h
    Full point group: C2h

    Geometry (in Angstrom), charge = 0, multiplicity = 3:

    S       
    S             1          r1
    S             1          r2      2          a1
    S             2          r3      1          a2      3          d1

    a1        =  103.1250454546
    a2        =  103.1250454546
    d1        = -180.0000000000
    r1        =    2.1397064529
    r2        =    1.9410812820
    r3        =    1.9410812820

gradient() will perform analytic gradient computation.

*** tstart() called on c1-15.compute.lan
*** at Thu Feb 11 14:00:47 2021

   => Loading Basis Set <=

    Name: AUG-CC-PVTZ
    Role: ORBITAL
    Keyword: BASIS
    atoms 1-4 entry S          line   906 file /apps/gb/PSI4/1.4.0/share/psi4/basis/aug-cc-pvtz.gbs 

   => WB97X-D: Empirical Dispersion <=

    Chai and Head-Gordon Dispersion Correction
    Chai, J.-D.; Head-Gordon, M. (2010), J. Chem. Phys., 132: 6615-6620

        s6 =       1.000000


         ---------------------------------------------------------
                                   SCF
               by Justin Turney, Rob Parrish, Andy Simmonett
                          and Daniel G. A. Smith
                              UKS Reference
                        1 Threads,  15258 MiB Core
         ---------------------------------------------------------

  ==> Geometry <==

    Molecular point group: c2h
    Full point group: C2h

    Geometry (in Angstrom), charge = 0, multiplicity = 3:

       Center              X                  Y                   Z               Mass       
    ------------   -----------------  -----------------  -----------------  -----------------
         S            0.000000000000     1.069853226446     0.000000000000    31.972071174400
         S            0.000000000000    -1.069853226446     0.000000000000    31.972071174400
         S           -1.890374025790     1.510628209908     0.000000000000    31.972071174400
         S            1.890374025790    -1.510628209908     0.000000000000    31.972071174400

  Running in c2h symmetry.

  Rotational constants: A =      0.40971  B =      0.04147  C =      0.03766 [cm^-1]
  Rotational constants: A =  12282.89016  B =   1243.33573  C =   1129.04784 [MHz]
  Nuclear repulsion =  315.584928942281749

  Charge       = 0
  Multiplicity = 3
  Electrons    = 64
  Nalpha       = 33
  Nbeta        = 31

  ==> Algorithm <==

  SCF Algorithm Type is DF.
  DIIS enabled.
  MOM disabled.
  Fractional occupation disabled.
  Guess Type is READ.
  Energy threshold   = 1.00e-08
  Density threshold  = 1.00e-08
  Integral threshold = 0.00e+00

  ==> Primary Basis <==

  Basis Set: AUG-CC-PVTZ
    Blend: AUG-CC-PVTZ
    Number of shells: 64
    Number of basis function: 200
    Number of Cartesian functions: 236
    Spherical Harmonics?: true
    Max angular momentum: 3

  ==> DFT Potential <==

   => Composite Functional: WB97X-D <= 

    wB97X-D Hyb-GGA Exchange-Correlation Functional

    J.-D. Chai and M. Head-Gordon, Phys. Chem. Chem. Phys. 10, 6615 (2008)

    Deriv               =              1
    GGA                 =           TRUE
    Meta                =          FALSE

    Exchange Hybrid     =           TRUE
    MP2 Hybrid          =          FALSE

   => Exchange-Correlation Functionals <=

    1.0000   wB97D range-separated functional

   => Exact (HF) Exchange <=

    0.7780            HF,LR [omega = 0.2000]
    0.2220               HF 

   => Molecular Quadrature <=

    Radial Scheme          =       TREUTLER
    Pruning Scheme         =           NONE
    Nuclear Scheme         =       TREUTLER

    BS radius alpha        =              1
    Pruning alpha          =              1
    Radial Points          =             99
    Spherical Points       =            590
    Total Points           =         225782
    Total Blocks           =           1826
    Max Points             =            256
    Max Functions          =            200
    Weights Tolerance      =       1.00E-15

   => Loading Basis Set <=

    Name: (AUG-CC-PVTZ AUX)
    Role: JKFIT
    Keyword: DF_BASIS_SCF
    atoms 1-4 entry S          line   730 file /apps/gb/PSI4/1.4.0/share/psi4/basis/aug-cc-pvtz-jkfit.gbs 

   => Loading Basis Set <=

    Name: AUG-CC-PVTZ
    Role: ORBITAL
    Keyword: BASIS
    atoms 1-4 entry S          line   906 file /apps/gb/PSI4/1.4.0/share/psi4/basis/aug-cc-pvtz.gbs 

  Reading orbitals from file 180, no projection.

  ==> Pre-Iterations <==

   -------------------------------------------------------
    Irrep   Nso     Nmo     Nalpha   Nbeta   Ndocc  Nsocc
   -------------------------------------------------------
     Ag        66      66       0       0       0       0
     Bg        34      34       0       0       0       0
     Au        34      34       0       0       0       0
     Bu        66      66       0       0       0       0
   -------------------------------------------------------
    Total     200     200      33      31      31       2
   -------------------------------------------------------

  ==> Integral Setup <==

  ==> DiskDFJK: Density-Fitted J/K Matrices <==

    J tasked:                  Yes
    K tasked:                  Yes
    wK tasked:                 Yes
    Omega:               2.000E-01
    OpenMP threads:              1
    Integrals threads:           1
    Memory [MiB]:            10309
    Algorithm:                Core
    Integral Cache:           NONE
    Schwarz Cutoff:          1E-12
    Fitting Condition:       1E-10

   => Auxiliary Basis Set <=

  Basis Set: (AUG-CC-PVTZ AUX)
    Blend: AUG-CC-PVTZ-JKFIT
    Number of shells: 168
    Number of basis function: 584
    Number of Cartesian functions: 720
    Spherical Harmonics?: true
    Max angular momentum: 4

  Cached 100.0% of DFT collocation blocks in 1.108 [GiB].

  Minimum eigenvalue in the overlap matrix is 1.8325363999E-04.
  Using Symmetric Orthogonalization.

  SCF Guess: Orbitals guess was supplied from a previous computation.

  ==> Iterations <==

                           Total Energy        Delta E     RMS |[F,P]|

   @DF-UKS iter   0: -1592.81423223725824   -1.59281e+03   1.72072e-03 
   @DF-UKS iter   1: -1592.79713268803312    1.70995e-02   1.81859e-04 DIIS
   @DF-UKS iter   2: -1592.79740775886330   -2.75071e-04   1.12231e-04 DIIS
   @DF-UKS iter   3: -1592.79749360757523   -8.58487e-05   2.15322e-05 DIIS
   @DF-UKS iter   4: -1592.79750937523750   -1.57677e-05   1.59347e-05 DIIS
   @DF-UKS iter   5: -1592.79751290088302   -3.52565e-06   5.79084e-06 DIIS
   @DF-UKS iter   6: -1592.79751425740392   -1.35652e-06   3.28435e-06 DIIS
   @DF-UKS iter   7: -1592.79751461271667   -3.55313e-07   1.21650e-06 DIIS
   @DF-UKS iter   8: -1592.79751467145684   -5.87402e-08   4.50098e-07 DIIS
   @DF-UKS iter   9: -1592.79751467736241   -5.90558e-09   8.24153e-08 DIIS
   @DF-UKS iter  10: -1592.79751467755455   -1.92131e-10   1.93711e-08 DIIS
   @DF-UKS iter  11: -1592.79751467756682   -1.22782e-11   6.77407e-09 DIIS
  Energy and wave function converged.


  ==> Post-Iterations <==

   @Spin Contamination Metric:   1.164205427E-02
   @S^2 Expected:                2.000000000E+00
   @S^2 Observed:                2.011642054E+00
   @S   Expected:                1.000000000E+00
   @S   Observed:                1.000000000E+00

    Orbital Energies [Eh]
    ---------------------

    Alpha Occupied:                                                       

       1Bu   -89.145494     1Ag   -89.145490     2Bu   -89.096828  
       2Ag   -89.096826     3Ag    -8.149850     3Bu    -8.149804  
       4Bu    -8.104213     4Ag    -8.104213     5Ag    -6.098610  
       5Bu    -6.098471     6Ag    -6.094748     6Bu    -6.094717  
       1Au    -6.094662     1Bg    -6.094655     2Au    -6.055269  
       2Bg    -6.055269     7Ag    -6.052805     7Bu    -6.052805  
       8Ag    -6.043940     8Bu    -6.043939     9Ag    -0.982463  
       9Bu    -0.919662    10Ag    -0.776630    10Bu    -0.705963  
      11Ag    -0.533593    11Bu    -0.509300     3Au    -0.503669  
      12Ag    -0.450985     3Bg    -0.450337    12Bu    -0.386399  
       4Au    -0.354566    13Ag    -0.338537     4Bg    -0.314456  

    Alpha Virtual:                                                        

      13Bu    -0.017059    14Bu     0.023392    14Ag     0.043867  
      15Bu     0.066004    15Ag     0.072719    16Bu     0.074845  
       5Au     0.084410    16Ag     0.094892    17Ag     0.103937  
       5Bg     0.105774    18Ag     0.106587     6Bg     0.109334  
      17Bu     0.122570    18Bu     0.134511     6Au     0.136080  
      19Ag     0.166974     7Au     0.173130    19Bu     0.182762  
       7Bg     0.197374    20Ag     0.204859    20Bu     0.211634  
      21Bu     0.233998    21Ag     0.250583     8Bg     0.263022  
       8Au     0.263954    22Bu     0.265131    22Ag     0.275816  
      23Bu     0.285865     9Au     0.300945    23Ag     0.303404  
      24Ag     0.339485     9Bg     0.355472    24Bu     0.359756  
      25Ag     0.376674    10Bg     0.378447    10Au     0.385456  
      25Bu     0.386950    26Bu     0.425209    26Ag     0.442617  
      11Au     0.447553    11Bg     0.507336    27Bu     0.526168  
      27Ag     0.529640    12Au     0.539797    12Bg     0.550386  
      28Bu     0.554619    28Ag     0.557116    13Au     0.557276  
      29Ag     0.570100    29Bu     0.571355    14Au     0.573434  
      30Ag     0.583796    31Ag     0.590775    30Bu     0.598488  
      13Bg     0.608410    31Bu     0.619027    32Ag     0.626833  
      15Au     0.641137    33Ag     0.655801    14Bg     0.661612  
      34Ag     0.665290    32Bu     0.669007    33Bu     0.683794  
      15Bg     0.690092    16Bg     0.716517    35Ag     0.734348  
      16Au     0.742731    34Bu     0.751733    17Au     0.771963  
      17Bg     0.772331    35Bu     0.776499    36Ag     0.780153  
      36Bu     0.820889    18Bg     0.828896    37Ag     0.830908  
      38Ag     0.840024    37Bu     0.852985    18Au     0.913020  
      38Bu     0.936471    39Ag     0.991635    39Bu     0.993262  
      19Au     1.006151    19Bg     1.017755    20Au     1.021687  
      40Ag     1.049987    40Bu     1.065393    20Bg     1.115641  
      41Ag     1.134895    41Bu     1.147560    42Bu     1.162040  
      21Au     1.162484    42Ag     1.170502    21Bg     1.183490  
      43Bu     1.216653    22Au     1.217646    22Bg     1.239782  
      43Ag     1.256154    44Ag     1.286149    44Bu     1.363630  
      45Ag     1.381936    45Bu     1.420689    46Ag     1.484399  
      46Bu     1.537659    23Au     1.788410    47Ag     1.800341  
      23Bg     1.819228    47Bu     1.835316    24Bg     1.836804  
      48Ag     1.842549    48Bu     1.846696    24Au     1.854030  
      25Au     1.871080    49Bu     1.885784    49Ag     1.886308  
      25Bg     1.925194    50Bu     1.934693    26Au     1.961031  
      51Bu     1.975404    50Ag     1.987423    26Bg     1.997698  
      27Au     2.009145    51Ag     2.011153    52Bu     2.019157  
      27Bg     2.034255    28Au     2.035412    28Bg     2.054670  
      52Ag     2.055916    29Au     2.062640    53Ag     2.086577  
      53Bu     2.109415    30Au     2.133682    54Ag     2.157602  
      29Bg     2.170417    54Bu     2.172023    55Bu     2.177813  
      55Ag     2.187976    30Bg     2.212209    31Au     2.213634  
      56Bu     2.226212    56Ag     2.260050    31Bg     2.290983  
      57Bu     2.296530    57Ag     2.315450    32Au     2.330806  
      58Ag     2.333944    58Bu     2.345042    32Bg     2.359676  
      33Au     2.363648    59Ag     2.397465    59Bu     2.417595  
      60Bu     2.445796    33Bg     2.488577    60Ag     2.522323  
      61Ag     2.621818    34Au     2.626088    61Bu     2.633890  
      34Bg     2.648986    62Ag     2.650929    63Ag     2.770949  
      62Bu     2.772777    63Bu     3.552083    64Ag     3.701845  
      64Bu     3.725431    65Ag     4.846175    65Bu     5.345172  
      66Ag     5.622203    66Bu     5.875054  

    Beta Occupied:                                                        

       1Bu   -89.143353     1Ag   -89.143350     2Bu   -89.093070  
       2Ag   -89.093068     3Ag    -8.147634     3Bu    -8.147584  
       4Bu    -8.100470     4Ag    -8.100469     5Ag    -6.097264  
       5Bu    -6.097128     6Ag    -6.093504     6Bu    -6.093472  
       1Au    -6.086963     1Bg    -6.086954     7Ag    -6.050439  
       7Bu    -6.050439     2Au    -6.042496     2Bg    -6.042496  
       8Ag    -6.041347     8Bu    -6.041347     9Ag    -0.968626  
       9Bu    -0.903078    10Ag    -0.746085    10Bu    -0.675653  
      11Ag    -0.523968    11Bu    -0.497680     3Au    -0.461019  
      12Ag    -0.441299     3Bg    -0.390323    12Bu    -0.376072  
      13Ag    -0.328669  

    Beta Virtual:                                                         

       4Au    -0.103702     4Bg    -0.070386    13Bu    -0.010015  
      14Bu     0.031102    14Ag     0.049683    15Bu     0.066996  
      15Ag     0.073944    16Bu     0.080835     5Au     0.088597  
      16Ag     0.098623    17Ag     0.105010    18Ag     0.107271  
       5Bg     0.111775     6Bg     0.116583    17Bu     0.124020  
      18Bu     0.136219     6Au     0.143884    19Ag     0.168852  
       7Au     0.180805    19Bu     0.183267    20Ag     0.207705  
       7Bg     0.211639    20Bu     0.212388    21Bu     0.235762  
      21Ag     0.254425    22Bu     0.269090     8Bg     0.273484  
       8Au     0.276031    22Ag     0.281534    23Bu     0.290913  
      23Ag     0.308705     9Au     0.313403    24Ag     0.340875  
       9Bg     0.359753    24Bu     0.362120    25Ag     0.379121  
      10Bg     0.386381    25Bu     0.388559    10Au     0.388824  
      26Bu     0.427145    26Ag     0.445265    11Au     0.457802  
      11Bg     0.511541    27Bu     0.527933    27Ag     0.532450  
      12Au     0.548848    28Bu     0.556155    28Ag     0.560959  
      12Bg     0.561342    13Au     0.567108    29Ag     0.572322  
      29Bu     0.576223    14Au     0.583299    30Ag     0.585793  
      31Ag     0.595526    30Bu     0.606009    13Bg     0.618042  
      31Bu     0.623651    32Ag     0.635782    15Au     0.657466  
      33Ag     0.661473    14Bg     0.669688    34Ag     0.676122  
      32Bu     0.682033    33Bu     0.691935    15Bg     0.707160  
      16Bg     0.730918    35Ag     0.738931    34Bu     0.756840  
      16Au     0.758654    17Au     0.775322    17Bg     0.781737  
      35Bu     0.783625    36Ag     0.783745    36Bu     0.822634  
      18Bg     0.832283    37Ag     0.835407    38Ag     0.848401  
      37Bu     0.856150    18Au     0.918842    38Bu     0.941463  
      39Ag     0.994430    39Bu     0.995530    19Au     1.011012  
      19Bg     1.022457    20Au     1.026977    40Ag     1.053223  
      40Bu     1.070492    20Bg     1.123425    41Ag     1.136529  
      41Bu     1.149691    42Bu     1.164100    21Au     1.166277  
      42Ag     1.173915    21Bg     1.189614    43Bu     1.220237  
      22Au     1.228545    22Bg     1.249802    43Ag     1.259710  
      44Ag     1.288364    44Bu     1.365949    45Ag     1.393362  
      45Bu     1.433192    46Ag     1.491952    46Bu     1.548240  
      23Au     1.803364    47Ag     1.808607    23Bg     1.830818  
      47Bu     1.844932    24Bg     1.853151    48Bu     1.856354  
      48Ag     1.859745    24Au     1.866933    25Au     1.884797  
      49Ag     1.889475    49Bu     1.893129    50Bu     1.938052  
      25Bg     1.940330    26Au     1.979229    51Bu     1.983074  
      50Ag     1.995803    26Bg     2.015250    27Au     2.020088  
      51Ag     2.023040    52Bu     2.029970    27Bg     2.050523  
      28Au     2.059161    52Ag     2.069441    28Bg     2.069943  
      29Au     2.085258    53Ag     2.091889    53Bu     2.121734  
      30Au     2.152217    54Bu     2.177773    54Ag     2.178688  
      55Bu     2.192820    55Ag     2.194220    29Bg     2.197438  
      30Bg     2.232936    31Au     2.233455    56Bu     2.235120  
      56Ag     2.265231    57Bu     2.309470    31Bg     2.310459  
      57Ag     2.325512    32Au     2.343887    58Ag     2.348376  
      58Bu     2.356765    32Bg     2.375583    33Au     2.384184  
      59Ag     2.402575    59Bu     2.424094    60Bu     2.456041  
      33Bg     2.502574    60Ag     2.527983    61Ag     2.628664  
      61Bu     2.640116    34Au     2.645735    62Ag     2.654362  
      34Bg     2.668986    63Ag     2.775723    62Bu     2.776718  
      63Bu     3.557712    64Ag     3.706165    64Bu     3.729618  
      65Ag     4.856330    65Bu     5.355919    66Ag     5.628997  
      66Bu     5.880402  

    Final Occupation by Irrep:
             Ag    Bg    Au    Bu 
    DOCC [    13,    3,    3,   12 ]
    SOCC [     0,    1,    1,    0 ]

  @DF-UKS Final Energy: -1592.79751467756682

   => Energetics <=

    Nuclear Repulsion Energy =            315.5849289422817492
    One-Electron Energy =               -2827.9259362595385028
    Two-Electron Energy =                 994.5642608607174679
    DFT Exchange-Correlation Energy =     -75.0202525300162648
    Empirical Dispersion Energy =          -0.0005156910112551
    VV10 Nonlocal Energy =                  0.0000000000000000
    Total Energy =                      -1592.7975146775668236

  UHF NO Occupations:
  HONO-2 :    3 Bg 1.9976059
  HONO-1 :    4 Au 1.0000000
  HONO-0 :    4 Bg 1.0000000
  LUNO+0 :    5 Bg 0.0023941
  LUNO+1 :    5 Au 0.0010915
  LUNO+2 :   13 Bu 0.0007495
  LUNO+3 :   14 Ag 0.0007293


Computation Completed


Properties will be evaluated at   0.000000,   0.000000,   0.000000 [a0]

Properties computed using the SCF density matrix

  Nuclear Dipole Moment: [e a0]
     X:     0.0000      Y:     0.0000      Z:     0.0000

  Electronic Dipole Moment: [e a0]
     X:     0.0000      Y:     0.0000      Z:     0.0000

  Dipole Moment: [e a0]
     X:     0.0000      Y:     0.0000      Z:     0.0000     Total:     0.0000

  Dipole Moment: [D]
     X:     0.0000      Y:     0.0000      Z:     0.0000     Total:     0.0000


*** tstop() called on c1-15.compute.lan at Thu Feb 11 14:01:45 2021
Module time:
	user time   =      57.28 seconds =       0.95 minutes
	system time =       0.41 seconds =       0.01 minutes
	total time  =         58 seconds =       0.97 minutes
Total time:
	user time   =     233.45 seconds =       3.89 minutes
	system time =       2.40 seconds =       0.04 minutes
	total time  =        237 seconds =       3.95 minutes

*** tstart() called on c1-15.compute.lan
*** at Thu Feb 11 14:01:45 2021


         ------------------------------------------------------------
                                   SCF GRAD                          
                          Rob Parrish, Justin Turney,                
                       Andy Simmonett, and Alex Sokolov              
         ------------------------------------------------------------

  ==> Geometry <==

    Molecular point group: c2h
    Full point group: C2h

    Geometry (in Angstrom), charge = 0, multiplicity = 3:

       Center              X                  Y                   Z               Mass       
    ------------   -----------------  -----------------  -----------------  -----------------
         S            0.000000000000     1.069853226446     0.000000000000    31.972071174400
         S            0.000000000000    -1.069853226446     0.000000000000    31.972071174400
         S           -1.890374025790     1.510628209908     0.000000000000    31.972071174400
         S            1.890374025790    -1.510628209908     0.000000000000    31.972071174400

  Nuclear repulsion =  315.584928942281749

  ==> Basis Set <==

  Basis Set: AUG-CC-PVTZ
    Blend: AUG-CC-PVTZ
    Number of shells: 64
    Number of basis function: 200
    Number of Cartesian functions: 236
    Spherical Harmonics?: true
    Max angular momentum: 3

  ==> DFJKGrad: Density-Fitted SCF Gradients <==

    Gradient:                    1
    J tasked:                  Yes
    K tasked:                  Yes
    wK tasked:                 Yes
    Omega:               2.000E-01
    OpenMP threads:              1
    Integrals threads:           1
    Memory [MiB]:            11444
    Schwarz Cutoff:          0E+00
    Fitting Condition:       1E-10

   => Auxiliary Basis Set <=

  Basis Set: (AUG-CC-PVTZ AUX)
    Blend: AUG-CC-PVTZ-JKFIT
    Number of shells: 168
    Number of basis function: 584
    Number of Cartesian functions: 720
    Spherical Harmonics?: true
    Max angular momentum: 4

  ==> DFT Potential <==

   => Composite Functional: WB97X-D <= 

    wB97X-D Hyb-GGA Exchange-Correlation Functional

    J.-D. Chai and M. Head-Gordon, Phys. Chem. Chem. Phys. 10, 6615 (2008)

    Deriv               =              1
    GGA                 =           TRUE
    Meta                =          FALSE

    Exchange Hybrid     =           TRUE
    MP2 Hybrid          =          FALSE

   => Exchange-Correlation Functionals <=

    1.0000   wB97D range-separated functional

   => Exact (HF) Exchange <=

    0.7780            HF,LR [omega = 0.2000]
    0.2220               HF 

   => Molecular Quadrature <=

    Radial Scheme          =       TREUTLER
    Pruning Scheme         =           NONE
    Nuclear Scheme         =       TREUTLER

    BS radius alpha        =              1
    Pruning alpha          =              1
    Radial Points          =             99
    Spherical Points       =            590
    Total Points           =         225782
    Total Blocks           =           1826
    Max Points             =            256
    Max Functions          =            200
    Weights Tolerance      =       1.00E-15


  -Total Gradient:
     Atom            X                  Y                   Z
    ------   -----------------  -----------------  -----------------
       1        0.000569774307    -0.005106691885     0.000000000000
       2       -0.000569774307     0.005106691885     0.000000000000
       3        0.001496929812    -0.001527391699     0.000000000000
       4       -0.001496929812     0.001527391699     0.000000000000


*** tstop() called on c1-15.compute.lan at Thu Feb 11 14:02:09 2021
Module time:
	user time   =      24.46 seconds =       0.41 minutes
	system time =       0.23 seconds =       0.00 minutes
	total time  =         24 seconds =       0.40 minutes
Total time:
	user time   =     257.91 seconds =       4.30 minutes
	system time =       2.63 seconds =       0.04 minutes
	total time  =        261 seconds =       4.35 minutes

			-----------------------------------------
			 OPTKING 2.0: for geometry optimizations 
			  - R.A. King,  Bethel University        
			-----------------------------------------

	Previous internal coordinate definitions found.
	---Fragment 1 Geometry and Gradient---
	 S           0.0000000000        2.0217295924        0.0000000000
	 S           0.0000000000       -2.0217295924        0.0000000000
	 S          -3.5722891834        2.8546735941        0.0000000000
	 S           3.5722891834       -2.8546735941        0.0000000000
	             0.0005697743       -0.0051066919        0.0000000000
	            -0.0005697743        0.0051066919        0.0000000000
	             0.0014969298       -0.0015273917        0.0000000000
	            -0.0014969298        0.0015273917        0.0000000000

	---Fragment 1 Intrafragment Coordinates---
	 - Coordinate -           - BOHR/RAD -       - ANG/DEG -
	 R(1,2)           =         4.043459	       2.139706
	 R(1,3)           =         3.668112	       1.941081
	 R(2,4)           =         3.668112	       1.941081
	 B(1,2,4)         =         1.799872	     103.125045
	 B(2,1,3)         =         1.799872	     103.125045
	 D(3,1,2,4)       =         3.141593	     180.000000

	Current energy   :     -1592.7975146776

	Energy change for the previous step:
		Projected    :        -0.0073211920
		Actual       :        -0.0017727327
	Energy ratio indicates iffy step: Trust radius decreased to 2.500e-01.


	Performing BFGS update.
	Previous computed or guess Hessian on step 1.
	Steps to be used in Hessian update: 2 1
	Taking RFO optimization step.
	Going to follow RFO solution 1.
	Using RFO vector 1.
	Norm of target step-size    0.04369
	Projected energy change by RFO approximation:        -0.0004105452

	Back-transformation to cartesian coordinates...
	Successfully converged to displaced geometry.

	--- Internal Coordinate Step in ANG or DEG, aJ/ANG or AJ/DEG ---
	 ---------------------------------------------------------------------------
	   Coordinate                Previous        Force       Change         New 
	   ----------                --------       ------       ------       ------
	    1 R(1,2)          =      2.139706     0.054620     0.019423     2.159129
	    2 R(1,3)          =      1.941081     0.014888    -0.001704     1.939378
	    3 R(2,4)          =      1.941081     0.014888    -0.001704     1.939378
	    4 B(1,2,4)        =    103.125045     0.000319     0.942394   104.067440
	    5 B(2,1,3)        =    103.125045     0.000319     0.942394   104.067440
	    6 D(3,1,2,4)      =    180.000000     0.000000     0.000000   180.000000
[...]
     121Ap     2.620169    67App    2.628947   122Ap     2.633928  
      68App    2.647458   123Ap     2.652975   124Ap     2.742222  
     125Ap     2.757020   126Ap     3.499953   127Ap     3.696607  
     128Ap     3.729087   129Ap     4.849618   130Ap     5.309700  
     131Ap     5.607069   132Ap     5.871764  

    Beta Occupied:                                                        

       1Ap   -89.143018     2Ap   -89.143006     3Ap   -89.093933  
       4Ap   -89.093927     5Ap    -8.147004     6Ap    -8.146959  
       7Ap    -8.101238     8Ap    -8.101236     9Ap    -6.096603  
      10Ap    -6.096490    11Ap    -6.092903    12Ap    -6.092873  
       1App   -6.086377     2App   -6.086361    13Ap    -6.051173  
      14Ap    -6.051172     3App   -6.043226     4App   -6.043225  
      15Ap    -6.042216    16Ap    -6.042215    17Ap    -0.963579  
      18Ap    -0.904114    19Ap    -0.744241    20Ap    -0.675562  
      21Ap    -0.522105    22Ap    -0.495235     5App   -0.457519  
      23Ap    -0.441947     6App   -0.391851    24Ap    -0.378586  
      25Ap    -0.326828  

    Beta Virtual:                                                         

       7App   -0.103273     8App   -0.070497    26Ap    -0.015772  
      27Ap     0.030343    28Ap     0.049989    29Ap     0.067077  
      30Ap     0.073908    31Ap     0.080744     9App    0.088639  
      32Ap     0.099495    33Ap     0.105188    34Ap     0.107789  
      10App    0.111863    11App    0.116292    35Ap     0.123052  
      36Ap     0.135966    12App    0.143871    37Ap     0.168329  
      13App    0.180452    38Ap     0.183331    39Ap     0.207629  
      14App    0.212117    40Ap     0.212733    41Ap     0.233571  
      42Ap     0.253864    43Ap     0.269940    15App    0.272331  
      16App    0.276776    44Ap     0.280749    45Ap     0.291115  
      46Ap     0.310276    17App    0.311759    47Ap     0.339378  
      18App    0.359393    48Ap     0.360255    49Ap     0.378195  
      19App    0.386423    20App    0.387413    50Ap     0.388522  
      51Ap     0.426348    52Ap     0.444740    21App    0.458474  
      22App    0.510554    53Ap     0.527852    54Ap     0.530827  
      23App    0.550600    55Ap     0.557192    24App    0.561332  
      56Ap     0.561483    25App    0.567178    57Ap     0.574188  
      58Ap     0.574903    26App    0.582912    59Ap     0.584132  
      60Ap     0.593229    61Ap     0.606679    27App    0.618082  
      62Ap     0.621761    63Ap     0.636232    28App    0.656890  
      64Ap     0.659419    29App    0.666639    65Ap     0.673969  
      66Ap     0.682401    67Ap     0.692321    30App    0.705067  
      31App    0.731683    68Ap     0.738580    69Ap     0.753469  
      32App    0.758994    33App    0.773347    34App    0.778771  
      70Ap     0.780263    71Ap     0.782498    72Ap     0.816739  
      35App    0.831567    73Ap     0.833613    74Ap     0.847044  
      75Ap     0.852597    36App    0.913427    76Ap     0.938172  
      77Ap     0.990754    78Ap     0.992466    37App    1.006555  
      38App    1.023584    39App    1.023823    79Ap     1.050446  
      80Ap     1.066315    40App    1.115733    81Ap     1.141624  
      82Ap     1.143322    83Ap     1.161765    41App    1.166171  
      84Ap     1.167699    42App    1.187241    85Ap     1.219179  
      43App    1.227257    44App    1.248521    86Ap     1.254236  
      87Ap     1.291443    88Ap     1.363163    89Ap     1.386563  
      90Ap     1.428440    91Ap     1.490895    92Ap     1.545614  
      45App    1.801575    93Ap     1.808314    46App    1.831414  
      94Ap     1.840098    47App    1.850159    95Ap     1.857212  
      96Ap     1.857608    48App    1.865338    49App    1.879106  
      97Ap     1.889511    98Ap     1.891588    50App    1.942160  
      99Ap     1.944908   100Ap     1.977198    51App    1.979918  
     101Ap     1.995493    52App    2.015817   102Ap     2.023895  
      53App    2.030862   103Ap     2.032568    54App    2.048286  
      55App    2.058151   104Ap     2.070926    56App    2.072354  
      57App    2.082916   105Ap     2.089943   106Ap     2.123937  
      58App    2.152628   107Ap     2.172221   108Ap     2.175141  
     109Ap     2.180877   110Ap     2.190379    59App    2.190713  
      60App    2.225501    61App    2.230544   111Ap     2.232484  
     112Ap     2.233194   113Ap     2.303800    62App    2.310764  
     114Ap     2.331126    63App    2.339615   115Ap     2.347062  
     116Ap     2.366968    64App    2.379430    65App    2.380162  
     117Ap     2.396055   118Ap     2.423174   119Ap     2.456534  
      66App    2.481741   120Ap     2.524916   121Ap     2.627159  
     122Ap     2.640054    67App    2.648592   123Ap     2.656497  
      68App    2.667421   124Ap     2.747149   125Ap     2.760936  
     126Ap     3.505791   127Ap     3.700886   128Ap     3.733301  
     129Ap     4.859800   130Ap     5.320429   131Ap     5.613865  
     132Ap     5.877130  

    Final Occupation by Irrep:
             Ap   App 
    DOCC [    25,    6 ]
    SOCC [     0,    2 ]

  @DF-UKS Final Energy: -1592.79779270137396

   => Energetics <=

    Nuclear Repulsion Energy =            313.1115490455465533
    One-Electron Energy =               -2823.0021453452663991
    Two-Electron Energy =                 992.1059657859957497
    DFT Exchange-Correlation Energy =     -75.0126274413396743
    Empirical Dispersion Energy =          -0.0005347463102200
    VV10 Nonlocal Energy =                  0.0000000000000000
    Total Energy =                      -1592.7977927013737371

  UHF NO Occupations:
  HONO-2 :    6App 1.9976556
  HONO-1 :    7App 1.0000000
  HONO-0 :    8App 1.0000000
  LUNO+0 :    9App 0.0023444
  LUNO+1 :   10App 0.0011316
  LUNO+2 :   26 Ap 0.0007422
  LUNO+3 :   27 Ap 0.0007248


Computation Completed


Properties will be evaluated at   0.000000,   0.000000,   0.000000 [a0]

Properties computed using the SCF density matrix

  Nuclear Dipole Moment: [e a0]
     X:     0.0000      Y:     0.0000      Z:     0.0000

  Electronic Dipole Moment: [e a0]
     X:    -0.0000      Y:    -0.0003      Z:     0.0000

  Dipole Moment: [e a0]
     X:    -0.0000      Y:    -0.0003      Z:     0.0000     Total:     0.0003

  Dipole Moment: [D]
     X:    -0.0000      Y:    -0.0008      Z:     0.0000     Total:     0.0008


*** tstop() called on c1-15.compute.lan at Thu Feb 11 14:24:25 2021
Module time:
	user time   =      70.81 seconds =       1.18 minutes
	system time =       0.61 seconds =       0.01 minutes
	total time  =         72 seconds =       1.20 minutes
Total time:
	user time   =    1581.41 seconds =      26.36 minutes
	system time =      13.33 seconds =       0.22 minutes
	total time  =       1597 seconds =      26.62 minutes

*** tstart() called on c1-15.compute.lan
*** at Thu Feb 11 14:24:25 2021


         ------------------------------------------------------------
                                   SCF GRAD                          
                          Rob Parrish, Justin Turney,                
                       Andy Simmonett, and Alex Sokolov              
         ------------------------------------------------------------

  ==> Geometry <==

    Molecular point group: cs
    Full point group: Cs

    Geometry (in Angstrom), charge = 0, multiplicity = 3:

       Center              X                  Y                   Z               Mass       
    ------------   -----------------  -----------------  -----------------  -----------------
         S            0.000000000000     1.086794694215     0.000000000000    31.972071174400
         S            0.000000000000    -1.087262629454     0.000000000000    31.972071174400
         S           -1.881794357743     1.559587992580     0.000000000000    31.972071174400
         S            1.881794357743    -1.559120057342     0.000000000000    31.972071174400

  Nuclear repulsion =  313.111549045546553

  ==> Basis Set <==

  Basis Set: AUG-CC-PVTZ
    Blend: AUG-CC-PVTZ
    Number of shells: 64
    Number of basis function: 200
    Number of Cartesian functions: 236
    Spherical Harmonics?: true
    Max angular momentum: 3

  ==> DFJKGrad: Density-Fitted SCF Gradients <==

    Gradient:                    1
    J tasked:                  Yes
    K tasked:                  Yes
    wK tasked:                 Yes
    Omega:               2.000E-01
    OpenMP threads:              1
    Integrals threads:           1
    Memory [MiB]:            11444
    Schwarz Cutoff:          0E+00
    Fitting Condition:       1E-10

   => Auxiliary Basis Set <=

  Basis Set: (AUG-CC-PVTZ AUX)
    Blend: AUG-CC-PVTZ-JKFIT
    Number of shells: 168
    Number of basis function: 584
    Number of Cartesian functions: 720
    Spherical Harmonics?: true
    Max angular momentum: 4

  ==> DFT Potential <==

   => Composite Functional: WB97X-D <= 

    wB97X-D Hyb-GGA Exchange-Correlation Functional

    J.-D. Chai and M. Head-Gordon, Phys. Chem. Chem. Phys. 10, 6615 (2008)

    Deriv               =              1
    GGA                 =           TRUE
    Meta                =          FALSE

    Exchange Hybrid     =           TRUE
    MP2 Hybrid          =          FALSE

   => Exchange-Correlation Functionals <=

    1.0000   wB97D range-separated functional

   => Exact (HF) Exchange <=

    0.7780            HF,LR [omega = 0.2000]
    0.2220               HF 

   => Molecular Quadrature <=

    Radial Scheme          =       TREUTLER
    Pruning Scheme         =           NONE
    Nuclear Scheme         =       TREUTLER

    BS radius alpha        =              1
    Pruning alpha          =              1
    Radial Points          =             99
    Spherical Points       =            590
    Total Points           =         225768
    Total Blocks           =           1845
    Max Points             =            256
    Max Functions          =            200
    Weights Tolerance      =       1.00E-15


  -Total Gradient:
     Atom            X                  Y                   Z
    ------   -----------------  -----------------  -----------------
       1        0.000049978828    -0.000020996752     0.000000000000
       2        0.000055215145    -0.000020944020     0.000000000000
       3       -0.000056166138     0.000016496382     0.000000000000
       4       -0.000048663211     0.000025367275     0.000000000000


*** tstop() called on c1-15.compute.lan at Thu Feb 11 14:24:49 2021
Module time:
	user time   =      24.00 seconds =       0.40 minutes
	system time =       0.21 seconds =       0.00 minutes
	total time  =         24 seconds =       0.40 minutes
Total time:
	user time   =    1605.41 seconds =      26.76 minutes
	system time =      13.54 seconds =       0.23 minutes
	total time  =       1621 seconds =      27.02 minutes

         ----------------------------------------------------------
                                   FINDIF
                     R. A. King and Jonathon Misiewicz
         ---------------------------------------------------------

  Computing second-derivative from gradients using projected, 
  symmetry-adapted, cartesian coordinates.

  10 gradients passed in, including the reference geometry.
  Generating complete list of displacements from unique ones.

    Operation 3 takes plus displacements of irrep Au to minus ones.
    Operation 2 takes plus displacements of irrep Bu to minus ones.

-------------------------------------------------------------


  ==> Harmonic Vibrational Analysis <==

  non-mass-weighted Hessian:       Symmetric? True   Hermitian? True   Lin Dep Dim?  6 (0)
  projection of translations (True) and rotations (True) removed 6 degrees of freedom (6)
  total projector:                 Symmetric? True   Hermitian? True   Lin Dep Dim?  6 (6)
  mass-weighted Hessian:           Symmetric? True   Hermitian? True   Lin Dep Dim?  6 (0)
  pre-proj  low-frequency mode:    0.0000i [cm^-1]
  pre-proj  low-frequency mode:    0.0000i [cm^-1]
  pre-proj  low-frequency mode:    0.0000i [cm^-1]
  pre-proj  low-frequency mode:    0.0000i [cm^-1]
  pre-proj  low-frequency mode:    0.0000i [cm^-1]
  pre-proj  low-frequency mode:    0.0000i [cm^-1]
  pre-proj  low-frequency mode:   30.4170  [cm^-1]
  pre-proj  all modes:['0.0000i' '0.0000i' '0.0000i' '0.0000i' '0.0000i' '0.0000i' '30.4170'
 '108.6093' '204.3645' '456.0084' '625.1953' '633.1731']
  projected mass-weighted Hessian: Symmetric? True   Hermitian? True   Lin Dep Dim?  6 (6)
  post-proj low-frequency mode:    0.0000i [cm^-1] (TR)
  post-proj low-frequency mode:    0.0000i [cm^-1] (TR)
  post-proj low-frequency mode:    0.0000i [cm^-1] (TR)
  post-proj low-frequency mode:    0.0000i [cm^-1] (TR)
  post-proj low-frequency mode:    0.0000  [cm^-1] (TR)
  post-proj low-frequency mode:    0.0000  [cm^-1] (TR)
  post-proj low-frequency mode:   30.4170  [cm^-1] (V)
  post-proj  all modes:['0.0000i' '0.0000i' '0.0000i' '0.0000i' '0.0000' '0.0000' '30.4170'
 '108.6093' '204.3645' '456.0084' '625.1953' '633.1731']

  Vibration                       7                   8                   9           
  Freq [cm^-1]                 30.4170             108.6093            204.3645       
  Irrep                           Au                  Bu                  Ag          
  Reduced mass [u]             31.9721             31.9721             31.9721        
  Force const [mDyne/A]         0.0174              0.2222              0.7867        
  Turning point v=0 [a0]        0.3519              0.1862              0.1357        
  RMS dev v=0 [a0 u^1/2]        1.4068              0.7445              0.5427        
  Char temp [K]                43.7633             156.2646            294.0350       
  ----------------------------------------------------------------------------------
      1   S               -0.00 -0.00  0.50    0.13  0.48 -0.00   -0.38  0.20 -0.00   
      2   S               -0.00 -0.00  0.50    0.13  0.48 -0.00    0.38 -0.20  0.00   
      3   S               -0.00  0.00 -0.50   -0.13 -0.48  0.00   -0.31  0.47  0.00   
      4   S               -0.00 -0.00 -0.50   -0.13 -0.48  0.00    0.31 -0.47 -0.00   

  Vibration                       10                  11                  12          
  Freq [cm^-1]                 456.0084            625.1953            633.1731       
  Irrep                           Ag                  Bu                  Ag          
  Reduced mass [u]             31.9721             31.9721             31.9721        
  Force const [mDyne/A]         3.9171              7.3630              7.5521        
  Turning point v=0 [a0]        0.0909              0.0776              0.0771        
  RMS dev v=0 [a0 u^1/2]        0.3633              0.3103              0.3083        
  Char temp [K]                656.0946            899.5168            910.9951       
  ----------------------------------------------------------------------------------
      1   S                0.11  0.68 -0.00    0.48 -0.13  0.00    0.51  0.00  0.00   
      2   S               -0.11 -0.68 -0.00    0.48 -0.13  0.00   -0.51 -0.00 -0.00   
      3   S                0.09 -0.14 -0.00   -0.48  0.13  0.00   -0.48  0.10 -0.00   
      4   S               -0.09  0.14  0.00   -0.48  0.13 -0.00    0.48 -0.10  0.00   

  ==> Thermochemistry Components <==

  Entropy, S
    Electronic S            2.183 [cal/(mol K)]        9.134 [J/(mol K)]       0.00347910 [mEh/K] (multiplicity = 3)
    Translational S        40.451 [cal/(mol K)]      169.248 [J/(mol K)]       0.06446314 [mEh/K] (mol. weight = 127.8883 [u], P = 101325.00 [Pa])
    Rotational S           25.991 [cal/(mol K)]      108.747 [J/(mol K)]       0.04141956 [mEh/K] (symmetry no. = 2)
    Vibrational S          12.771 [cal/(mol K)]       53.435 [J/(mol K)]       0.02035219 [mEh/K]
  Total S                  81.397 [cal/(mol K)]      340.564 [J/(mol K)]       0.12971399 [mEh/K]
  Correction S              0.000 [cal/(mol K)]        0.000 [J/(mol K)]       0.00000000 [mEh/K]

  Constant volume heat capacity, Cv
    Electronic Cv           0.000 [cal/(mol K)]        0.000 [J/(mol K)]       0.00000000 [mEh/K]
    Translational Cv        2.981 [cal/(mol K)]       12.472 [J/(mol K)]       0.00475022 [mEh/K]
    Rotational Cv           2.981 [cal/(mol K)]       12.472 [J/(mol K)]       0.00475022 [mEh/K]
    Vibrational Cv          9.048 [cal/(mol K)]       37.859 [J/(mol K)]       0.01441962 [mEh/K]
  Total Cv                 15.010 [cal/(mol K)]       62.802 [J/(mol K)]       0.02392005 [mEh/K]
  Correction Cv             0.000 [cal/(mol K)]        0.000 [J/(mol K)]       0.00000000 [mEh/K]

  Constant pressure heat capacity, Cp
    Electronic Cp           0.000 [cal/(mol K)]        0.000 [J/(mol K)]       0.00000000 [mEh/K]
    Translational Cp        4.968 [cal/(mol K)]       20.786 [J/(mol K)]       0.00791703 [mEh/K]
    Rotational Cp           2.981 [cal/(mol K)]       12.472 [J/(mol K)]       0.00475022 [mEh/K]
    Vibrational Cp          9.048 [cal/(mol K)]       37.859 [J/(mol K)]       0.01441962 [mEh/K]
  Total Cp                 16.997 [cal/(mol K)]       71.117 [J/(mol K)]       0.02708686 [mEh/K]
  Correction Cp             0.000 [cal/(mol K)]        0.000 [J/(mol K)]       0.00000000 [mEh/K]

  ==> Thermochemistry Energy Analysis <==

  Raw electronic energy, E0
  Total E0, Electronic energy at well bottom at 0 [K]                -1592.79779272 [Eh]

  Zero-point energy, ZPE_vib = Sum_i nu_i / 2
    Electronic ZPE          0.000 [kcal/mol]        0.000 [kJ/mol]       0.00000000 [Eh]
    Translational ZPE       0.000 [kcal/mol]        0.000 [kJ/mol]       0.00000000 [Eh]
    Rotational ZPE          0.000 [kcal/mol]        0.000 [kJ/mol]       0.00000000 [Eh]
    Vibrational ZPE         2.942 [kcal/mol]       12.308 [kJ/mol]       0.00468794 [Eh]        1028.884 [cm^-1]
  Correction ZPE            2.942 [kcal/mol]       12.308 [kJ/mol]       0.00468794 [Eh]        1028.884 [cm^-1]
  Total ZPE, Electronic energy at 0 [K]                              -1592.79310478 [Eh]

  Thermal Energy, E (includes ZPE)
    Electronic E            0.000 [kcal/mol]        0.000 [kJ/mol]       0.00000000 [Eh]
    Translational E         0.889 [kcal/mol]        3.718 [kJ/mol]       0.00141628 [Eh]
    Rotational E            0.889 [kcal/mol]        3.718 [kJ/mol]       0.00141628 [Eh]
    Vibrational E           4.634 [kcal/mol]       19.388 [kJ/mol]       0.00738467 [Eh]
  Correction E              6.411 [kcal/mol]       26.825 [kJ/mol]       0.01021722 [Eh]
  Total E, Electronic energy at  298.15 [K]                          -1592.78757550 [Eh]

  Enthalpy, H_trans = E_trans + k_B * T
    Electronic H            0.000 [kcal/mol]        0.000 [kJ/mol]       0.00000000 [Eh]
    Translational H         1.481 [kcal/mol]        6.197 [kJ/mol]       0.00236046 [Eh]
    Rotational H            0.889 [kcal/mol]        3.718 [kJ/mol]       0.00141628 [Eh]
    Vibrational H           4.634 [kcal/mol]       19.388 [kJ/mol]       0.00738467 [Eh]
  Correction H              7.004 [kcal/mol]       29.304 [kJ/mol]       0.01116140 [Eh]
  Total H, Enthalpy at  298.15 [K]                                   -1592.78663132 [Eh]

  Gibbs free energy, G = H - T * S
    Electronic G           -0.651 [kcal/mol]       -2.723 [kJ/mol]      -0.00103729 [Eh]
    Translational G       -10.579 [kcal/mol]      -44.264 [kJ/mol]      -0.01685922 [Eh]
    Rotational G           -6.861 [kcal/mol]      -28.704 [kJ/mol]      -0.01093297 [Eh]
    Vibrational G           0.826 [kcal/mol]        3.457 [kJ/mol]       0.00131666 [Eh]
  Correction G            -17.265 [kcal/mol]      -72.235 [kJ/mol]      -0.02751282 [Eh]
  Total G, Free enthalpy at  298.15 [K]                              -1592.82530554 [Eh]

    Psi4 stopped on: Thursday, 11 February 2021 02:24PM
    Psi4 wall time for execution: 0:27:00.78

*** Psi4 exiting successfully. Buy a developer a beer!
