
    -----------------------------------------------------------------------
          Psi4: An Open-Source Ab Initio Electronic Structure Package
                               Psi4 1.4a2.dev191 

                         Git: Rev {master} 0ab5346 


    R. M. Parrish, L. A. Burns, D. G. A. Smith, A. C. Simmonett,
    A. E. DePrince III, E. G. Hohenstein, U. Bozkaya, A. Yu. Sokolov,
    R. Di Remigio, R. M. Richard, J. F. Gonthier, A. M. James,
    H. R. McAlexander, A. Kumar, M. Saitow, X. Wang, B. P. Pritchard,
    P. Verma, H. F. Schaefer III, K. Patkowski, R. A. King, E. F. Valeev,
    F. A. Evangelista, J. M. Turney, T. D. Crawford, and C. D. Sherrill,
    J. Chem. Theory Comput. 13(7) pp 3185--3197 (2017).
    (doi: 10.1021/acs.jctc.7b00174)


                         Additional Contributions by
    P. Kraus, H. Kruse, M. H. Lechner, M. C. Schieber, R. A. Shaw,
    A. Alenaizan, R. Galvelis, Z. L. Glick, S. Lehtola, and J. P. Misiewicz

    -----------------------------------------------------------------------


    Psi4 started on: Tuesday, 02 February 2021 11:28AM

    Process ID: 11192
    Host:       c1-9.compute.lan
    PSIDATADIR: /apps/gb/PSI4/1.4.0/share/psi4
    Memory:     500.0 MiB
    Threads:    1
    
  ==> Input File <==

--------------------------------------------------------------------------
memory 10 GB

molecule  {
-2 1
S
S 1 r1
r1 = 2.0
}

set {
reference uks
basis aug-cc-pvtz
g_convergence gau_verytight
dft_spherical_points 590
dft_radial_points 99
}

optimize('wb97x-d')
frequencies('wb97x-d')

--------------------------------------------------------------------------

  Memory set to   9.313 GiB by Python driver.
gradient() will perform analytic gradient computation.

*** tstart() called on c1-9.compute.lan
*** at Tue Feb  2 11:28:41 2021

   => Loading Basis Set <=

    Name: AUG-CC-PVTZ
    Role: ORBITAL
    Keyword: BASIS
    atoms 1-2 entry S          line   906 file /apps/gb/PSI4/1.4.0/share/psi4/basis/aug-cc-pvtz.gbs 

   => WB97X-D: Empirical Dispersion <=

    Chai and Head-Gordon Dispersion Correction
    Chai, J.-D.; Head-Gordon, M. (2010), J. Chem. Phys., 132: 6615-6620

        s6 =       1.000000


         ---------------------------------------------------------
                                   SCF
               by Justin Turney, Rob Parrish, Andy Simmonett
                          and Daniel G. A. Smith
                              UKS Reference
                        1 Threads,   9536 MiB Core
         ---------------------------------------------------------

  ==> Geometry <==

    Molecular point group: d2h
    Full point group: D_inf_h

    Geometry (in Angstrom), charge = -2, multiplicity = 1:

       Center              X                  Y                   Z               Mass       
    ------------   -----------------  -----------------  -----------------  -----------------
         S            0.000000000000     0.000000000000    -1.000000000000    31.972071174400
         S            0.000000000000     0.000000000000     1.000000000000    31.972071174400

  Running in d2h symmetry.

  Rotational constants: A = ************  B =      0.26363  C =      0.26363 [cm^-1]
  Rotational constants: A = ************  B =   7903.44495  C =   7903.44495 [MHz]
  Nuclear repulsion =   67.734682965759930

  Charge       = -2
  Multiplicity = 1
  Electrons    = 34
  Nalpha       = 17
  Nbeta        = 17

  ==> Algorithm <==

  SCF Algorithm Type is DF.
  DIIS enabled.
  MOM disabled.
  Fractional occupation disabled.
  Guess Type is SAD.
  Energy threshold   = 1.00e-08
  Density threshold  = 1.00e-08
  Integral threshold = 0.00e+00

  ==> Primary Basis <==

  Basis Set: AUG-CC-PVTZ
    Blend: AUG-CC-PVTZ
    Number of shells: 32
    Number of basis function: 100
    Number of Cartesian functions: 118
    Spherical Harmonics?: true
    Max angular momentum: 3

  ==> DFT Potential <==

   => Composite Functional: WB97X-D <= 

    wB97X-D Hyb-GGA Exchange-Correlation Functional

    J.-D. Chai and M. Head-Gordon, Phys. Chem. Chem. Phys. 10, 6615 (2008)

    Deriv               =              1
    GGA                 =           TRUE
    Meta                =          FALSE

    Exchange Hybrid     =           TRUE
    MP2 Hybrid          =          FALSE

   => Exchange-Correlation Functionals <=

    1.0000   wB97D range-separated functional

   => Exact (HF) Exchange <=

    0.7780            HF,LR [omega = 0.2000]
    0.2220               HF 

   => Molecular Quadrature <=

    Radial Scheme          =       TREUTLER
    Pruning Scheme         =           NONE
    Nuclear Scheme         =       TREUTLER

    BS radius alpha        =              1
    Pruning alpha          =              1
    Radial Points          =             99
    Spherical Points       =            590
    Total Points           =         113384
    Total Blocks           =            986
    Max Points             =            255
    Max Functions          =            100
    Weights Tolerance      =       1.00E-15

   => Loading Basis Set <=

    Name: (AUG-CC-PVTZ AUX)
    Role: JKFIT
    Keyword: DF_BASIS_SCF
    atoms 1-2 entry S          line   730 file /apps/gb/PSI4/1.4.0/share/psi4/basis/aug-cc-pvtz-jkfit.gbs 

  ==> Pre-Iterations <==

   -------------------------------------------------------
    Irrep   Nso     Nmo     Nalpha   Nbeta   Ndocc  Nsocc
   -------------------------------------------------------
     Ag        21      21       0       0       0       0
     B1g        5       5       0       0       0       0
     B2g       12      12       0       0       0       0
     B3g       12      12       0       0       0       0
     Au         5       5       0       0       0       0
     B1u       21      21       0       0       0       0
     B2u       12      12       0       0       0       0
     B3u       12      12       0       0       0       0
   -------------------------------------------------------
    Total     100     100      17      17      17       0
   -------------------------------------------------------

  ==> Integral Setup <==

  ==> DiskDFJK: Density-Fitted J/K Matrices <==

    J tasked:                  Yes
    K tasked:                  Yes
    wK tasked:                 Yes
    Omega:               2.000E-01
    OpenMP threads:              1
    Integrals threads:           1
    Memory [MiB]:             6842
    Algorithm:                Core
    Integral Cache:           NONE
    Schwarz Cutoff:          1E-12
    Fitting Condition:       1E-10

   => Auxiliary Basis Set <=

  Basis Set: (AUG-CC-PVTZ AUX)
    Blend: AUG-CC-PVTZ-JKFIT
    Number of shells: 84
    Number of basis function: 292
    Number of Cartesian functions: 360
    Spherical Harmonics?: true
    Max angular momentum: 4

  Cached 100.0% of DFT collocation blocks in 0.303 [GiB].

  Minimum eigenvalue in the overlap matrix is 2.7190206739E-04.
  Using Symmetric Orthogonalization.

  SCF Guess: Superposition of Atomic Densities via on-the-fly atomic UHF.

  ==> Iterations <==

                           Total Energy        Delta E     RMS |[F,P]|

   @DF-UKS iter SAD:  -795.91936976525903   -7.95919e+02   0.00000e+00 
    Occupation by irrep:
             Ag   B1g   B2g   B3g    Au   B1u   B2u   B3u 
    DOCC [     5,    0,    2,    1,    0,    5,    2,    2 ]
    SOCC [     0,    0,    0,    0,    0,    0,    0,    0 ]

   @DF-UKS iter   1:  -796.05856208186958   -1.39192e-01   1.48856e-02 DIIS
    Occupation by irrep:
             Ag   B1g   B2g   B3g    Au   B1u   B2u   B3u 
    DOCC [     5,    0,    2,    2,    0,    4,    2,    2 ]
    SOCC [     0,    0,    0,    0,    0,    0,    0,    0 ]

   @DF-UKS iter   2:  -795.46928754805845    5.89275e-01   2.39068e-02 DIIS
   @DF-UKS iter   3:  -796.27024784536275   -8.00960e-01   4.66244e-03 DIIS
   @DF-UKS iter   4:  -796.30680862928409   -3.65608e-02   9.92758e-04 DIIS
   @DF-UKS iter   5:  -796.30980242319629   -2.99379e-03   4.46061e-04 DIIS
   @DF-UKS iter   6:  -796.31016704691433   -3.64624e-04   1.99348e-04 DIIS
   @DF-UKS iter   7:  -796.31025501827742   -8.79714e-05   7.56773e-05 DIIS
   @DF-UKS iter   8:  -796.31026726703885   -1.22488e-05   1.94731e-05 DIIS
   @DF-UKS iter   9:  -796.31026893635726   -1.66932e-06   2.84407e-06 DIIS
   @DF-UKS iter  10:  -796.31026903155794   -9.52007e-08   9.10430e-07 DIIS
   @DF-UKS iter  11:  -796.31026903821248   -6.65455e-09   1.16250e-07 DIIS
   @DF-UKS iter  12:  -796.31026903828717   -7.46923e-11   2.23565e-08 DIIS
   @DF-UKS iter  13:  -796.31026903828888   -1.70530e-12   2.43988e-09 DIIS
  Energy and wave function converged.


  ==> Post-Iterations <==

   @Spin Contamination Metric:  -7.105427358E-15
   @S^2 Expected:                0.000000000E+00
   @S^2 Observed:               -7.105427358E-15
   @S   Expected:                0.000000000E+00
   @S   Observed:                0.000000000E+00

    Orbital Energies [Eh]
    ---------------------

    Alpha Occupied:                                                       

       1B1u  -88.633707     1Ag   -88.633700     2Ag    -7.640675  
       2B1u   -7.640577     3Ag    -5.591261     3B1u   -5.590848  
       1B3u   -5.583848     1B2u   -5.583848     1B2g   -5.583820  
       1B3g   -5.583820     4Ag    -0.445882     4B1u   -0.256532  
       5Ag    -0.017615     2B3u    0.011905     2B2u    0.011905  
       2B3g    0.135639     2B2g    0.135639  

    Alpha Virtual:                                                        

       5B1u    0.277167     6Ag     0.341051     3B3u    0.359485  
       3B2u    0.359485     3B2g    0.367244     3B3g    0.367244  
       7Ag     0.413965     6B1u    0.440563     7B1u    0.521733  
       8Ag     0.556415     1B1g    0.556416     4B2u    0.610123  
       4B3u    0.610123     9Ag     0.626018     8B1u    0.644394  
       1Au     0.644394     4B3g    0.692709     4B2g    0.692709  
       9B1u    0.698069     5B3u    0.838524     5B2u    0.838524  
      10B1u    0.918167    10Ag     0.932979     5B2g    0.943738  
       5B3g    0.943738     6B3u    0.954455     6B2u    0.954455  
      11Ag     0.964670    12Ag     0.990836     2B1g    0.990838  
      13Ag     1.067364    11B1u    1.078435     2Au     1.078436  
       7B2u    1.109887     7B3u    1.109887     6B2g    1.149377  
       6B3g    1.149377     3B1g    1.181274    14Ag     1.181274  
       7B3g    1.251411     7B2g    1.251411    12B1u    1.252744  
       8B3u    1.411808     8B2u    1.411808    13B1u    1.444663  
       3Au     1.444664    14B1u    1.460024     8B2g    1.613554  
       8B3g    1.613554    15Ag     1.692866    15B1u    1.858554  
       4B1g    2.228029    16Ag     2.228033    16B1u    2.266788  
       9B3u    2.280462     9B2u    2.280462     4Au     2.299951  
      17B1u    2.299956    17Ag     2.383338     9B2g    2.410202  
       9B3g    2.410202    10B3u    2.458273    10B2u    2.458273  
      18Ag     2.498888     5B1g    2.498889    19Ag     2.503166  
      11B3u    2.526591    11B2u    2.526591    12B3u    2.556453  
      12B2u    2.556453    10B2g    2.616145    10B3g    2.616145  
      18B1u    2.742849     5Au     2.742852    11B2g    2.746647  
      11B3g    2.746647    19B1u    2.858020    20Ag     2.954290  
      12B2g    3.053750    12B3g    3.053750    20B1u    4.097212  
      21Ag     4.902871    21B1u    5.720241  

    Beta Occupied:                                                        

       1B1u  -88.633707     1Ag   -88.633700     2Ag    -7.640675  
       2B1u   -7.640577     3Ag    -5.591261     3B1u   -5.590848  
       1B3u   -5.583848     1B2u   -5.583848     1B2g   -5.583820  
       1B3g   -5.583820     4Ag    -0.445882     4B1u   -0.256532  
       5Ag    -0.017615     2B3u    0.011905     2B2u    0.011905  
       2B3g    0.135639     2B2g    0.135639  

    Beta Virtual:                                                         

       5B1u    0.277167     6Ag     0.341051     3B3u    0.359485  
       3B2u    0.359485     3B2g    0.367244     3B3g    0.367244  
       7Ag     0.413965     6B1u    0.440563     7B1u    0.521733  
       8Ag     0.556415     1B1g    0.556416     4B2u    0.610123  
       4B3u    0.610123     9Ag     0.626018     8B1u    0.644394  
       1Au     0.644394     4B3g    0.692709     4B2g    0.692709  
       9B1u    0.698069     5B3u    0.838524     5B2u    0.838524  
      10B1u    0.918167    10Ag     0.932979     5B2g    0.943738  
       5B3g    0.943738     6B3u    0.954455     6B2u    0.954455  
      11Ag     0.964670    12Ag     0.990836     2B1g    0.990838  
      13Ag     1.067364    11B1u    1.078435     2Au     1.078436  
       7B2u    1.109887     7B3u    1.109887     6B2g    1.149377  
       6B3g    1.149377     3B1g    1.181274    14Ag     1.181274  
       7B3g    1.251411     7B2g    1.251411    12B1u    1.252744  
       8B3u    1.411808     8B2u    1.411808    13B1u    1.444663  
       3Au     1.444664    14B1u    1.460024     8B2g    1.613554  
       8B3g    1.613554    15Ag     1.692866    15B1u    1.858554  
       4B1g    2.228029    16Ag     2.228033    16B1u    2.266788  
       9B3u    2.280462     9B2u    2.280462     4Au     2.299951  
      17B1u    2.299956    17Ag     2.383338     9B2g    2.410202  
       9B3g    2.410202    10B3u    2.458273    10B2u    2.458273  
      18Ag     2.498888     5B1g    2.498889    19Ag     2.503166  
      11B3u    2.526591    11B2u    2.526591    12B3u    2.556453  
      12B2u    2.556453    10B2g    2.616145    10B3g    2.616145  
      18B1u    2.742849     5Au     2.742852    11B2g    2.746647  
      11B3g    2.746647    19B1u    2.858020    20Ag     2.954290  
      12B2g    3.053750    12B3g    3.053750    20B1u    4.097212  
      21Ag     4.902871    21B1u    5.720241  

    Final Occupation by Irrep:
             Ag   B1g   B2g   B3g    Au   B1u   B2u   B3u 
    DOCC [     5,    0,    2,    2,    0,    4,    2,    2 ]
    SOCC [     0,    0,    0,    0,    0,    0,    0,    0 ]

  @DF-UKS Final Energy:  -796.31026903828888

   => Energetics <=

    Nuclear Repulsion Energy =             67.7346829657599301
    One-Electron Energy =               -1249.2167971539092832
    Two-Electron Energy =                 422.8301414357863450
    DFT Exchange-Correlation Energy =     -37.6582855913825796
    Empirical Dispersion Energy =          -0.0000106945433699
    VV10 Nonlocal Energy =                  0.0000000000000000
    Total Energy =                       -796.3102690382888795

  UHF NO Occupations:
  HONO-2 :    2B3g 2.0000000
  HONO-1 :    4 Ag 2.0000000
  HONO-0 :    5 Ag 2.0000000
  LUNO+0 :    6 Ag 0.0000000
  LUNO+1 :    7 Ag 0.0000000
  LUNO+2 :    3B2g 0.0000000
  LUNO+3 :    3B2u 0.0000000


Computation Completed


Properties will be evaluated at   0.000000,   0.000000,   0.000000 [a0]

Properties computed using the SCF density matrix

  Nuclear Dipole Moment: [e a0]
     X:     0.0000      Y:     0.0000      Z:     0.0000

  Electronic Dipole Moment: [e a0]
     X:     0.0000      Y:     0.0000      Z:     0.0000

  Dipole Moment: [e a0]
     X:     0.0000      Y:     0.0000      Z:     0.0000     Total:     0.0000

  Dipole Moment: [D]
     X:     0.0000      Y:     0.0000      Z:     0.0000     Total:     0.0000


*** tstop() called on c1-9.compute.lan at Tue Feb  2 11:28:54 2021
Module time:
	user time   =      12.17 seconds =       0.20 minutes
	system time =       0.39 seconds =       0.01 minutes
	total time  =         13 seconds =       0.22 minutes
Total time:
	user time   =      12.17 seconds =       0.20 minutes
	system time =       0.39 seconds =       0.01 minutes
	total time  =         13 seconds =       0.22 minutes

*** tstart() called on c1-9.compute.lan
*** at Tue Feb  2 11:28:54 2021


         ------------------------------------------------------------
                                   SCF GRAD                          
                          Rob Parrish, Justin Turney,                
                       Andy Simmonett, and Alex Sokolov              
         ------------------------------------------------------------

  ==> Geometry <==

    Molecular point group: d2h
    Full point group: D_inf_h

    Geometry (in Angstrom), charge = -2, multiplicity = 1:

       Center              X                  Y                   Z               Mass       
    ------------   -----------------  -----------------  -----------------  -----------------
         S            0.000000000000     0.000000000000    -1.000000000000    31.972071174400
         S            0.000000000000     0.000000000000     1.000000000000    31.972071174400

  Nuclear repulsion =   67.734682965759930

  ==> Basis Set <==

  Basis Set: AUG-CC-PVTZ
    Blend: AUG-CC-PVTZ
    Number of shells: 32
    Number of basis function: 100
    Number of Cartesian functions: 118
    Spherical Harmonics?: true
    Max angular momentum: 3

  ==> DFJKGrad: Density-Fitted SCF Gradients <==

    Gradient:                    1
    J tasked:                  Yes
    K tasked:                  Yes
    wK tasked:                 Yes
    Omega:               2.000E-01
    OpenMP threads:              1
    Integrals threads:           1
    Memory [MiB]:             7152
    Schwarz Cutoff:          0E+00
    Fitting Condition:       1E-10

   => Auxiliary Basis Set <=

  Basis Set: (AUG-CC-PVTZ AUX)
    Blend: AUG-CC-PVTZ-JKFIT
    Number of shells: 84
    Number of basis function: 292
    Number of Cartesian functions: 360
    Spherical Harmonics?: true
    Max angular momentum: 4

  ==> DFT Potential <==

   => Composite Functional: WB97X-D <= 

    wB97X-D Hyb-GGA Exchange-Correlation Functional

    J.-D. Chai and M. Head-Gordon, Phys. Chem. Chem. Phys. 10, 6615 (2008)

    Deriv               =              1
    GGA                 =           TRUE
    Meta                =          FALSE

    Exchange Hybrid     =           TRUE
    MP2 Hybrid          =          FALSE

   => Exchange-Correlation Functionals <=

    1.0000   wB97D range-separated functional

   => Exact (HF) Exchange <=

    0.7780            HF,LR [omega = 0.2000]
    0.2220               HF 

   => Molecular Quadrature <=

    Radial Scheme          =       TREUTLER
    Pruning Scheme         =           NONE
    Nuclear Scheme         =       TREUTLER

    BS radius alpha        =              1
    Pruning alpha          =              1
    Radial Points          =             99
    Spherical Points       =            590
    Total Points           =         113384
    Total Blocks           =            986
    Max Points             =            255
    Max Functions          =            100
    Weights Tolerance      =       1.00E-15


  -Total Gradient:
     Atom            X                  Y                   Z
    ------   -----------------  -----------------  -----------------
       1       -0.000000000000     0.000000000000     0.050547292111
       2       -0.000000000000     0.000000000000    -0.050547292111


*** tstop() called on c1-9.compute.lan at Tue Feb  2 11:28:58 2021
Module time:
	user time   =       4.03 seconds =       0.07 minutes
	system time =       0.04 seconds =       0.00 minutes
	total time  =          4 seconds =       0.07 minutes
Total time:
	user time   =      16.20 seconds =       0.27 minutes
	system time =       0.43 seconds =       0.01 minutes
	total time  =         17 seconds =       0.28 minutes

			-----------------------------------------
			 OPTKING 2.0: for geometry optimizations 
			  - R.A. King,  Bethel University        
			-----------------------------------------

	Internal coordinates to be generated automatically.
	Detected frag 1 with atoms:  1 2
	---Fragment 1 Bond Connectivity---
	 1 : 2
	 2 : 1

	---Fragment 1 Geometry and Gradient---
	 S           0.0000000000        0.0000000000       -1.8897261255
	 S           0.0000000000        0.0000000000        1.8897261255
	            -0.0000000000        0.0000000000        0.0505472921
	            -0.0000000000        0.0000000000       -0.0505472921

	Previous optimization step data not found.  Starting new optimization.

	---Fragment 1 Intrafragment Coordinates---
	 - Coordinate -           - BOHR/RAD -       - ANG/DEG -
	 R(1,2)           =         3.779452	       2.000000

	Current energy   :      -796.3102690383

	Generating empirical Hessian (Schlegel '84) for each fragment.
	Taking RFO optimization step.
	Going to follow RFO solution 1.
	Using RFO vector 1.
	Norm of target step-size    0.14314
	Projected energy change by RFO approximation:         0.0029485294

	Back-transformation to cartesian coordinates...
	Successfully converged to displaced geometry.

	--- Internal Coordinate Step in ANG or DEG, aJ/ANG or AJ/DEG ---
	 ---------------------------------------------------------------------------
	   Coordinate                Previous        Force       Change         New 
	   ----------                --------       ------       ------       ------
	    1 R(1,2)          =      2.000000     0.416445     0.075745     2.075745
	 ---------------------------------------------------------------------------
	Successfully symmetrized geometry.

  ==> Convergence Check <==

  Measures of convergence in internal coordinates in au.
  Criteria marked as inactive (o), active & met (*), and active & unmet ( ).
  --------------------------------------------------------------------------------------------- ~
   Step     Total Energy     Delta E     MAX Force     RMS Force      MAX Disp      RMS Disp    ~
  --------------------------------------------------------------------------------------------- ~
    Convergence Criteria             o    2.00e-06 *    1.00e-06 *    6.00e-06 *    4.00e-06 *  ~
  --------------------------------------------------------------------------------------------- ~
      1    -796.31026904   -7.96e+02 o    5.05e-02      5.05e-02      1.43e-01      1.43e-01    ~
  ---------------------------------------------------------------------------------------------

	Writing optimization data to binary file.
	Structure for next step:
	Cartesian Geometry (in Angstrom)
	    S     0.0000000000   0.0000000000  -1.0378724924
	    S     0.0000000000   0.0000000000   1.0378724924
			--------------------------
			 OPTKING Finished Execution 
			--------------------------

    Structure for next step:
    Molecular point group: d2h
    Full point group: D_inf_h

    Geometry (in Angstrom), charge = -2, multiplicity = 1:

    S       
    S             1          r1

    r1        =    2.0757449930

gradient() will perform analytic gradient computation.

*** tstart() called on c1-9.compute.lan
*** at Tue Feb  2 11:28:58 2021

   => Loading Basis Set <=

    Name: AUG-CC-PVTZ
    Role: ORBITAL
    Keyword: BASIS
    atoms 1-2 entry S          line   906 file /apps/gb/PSI4/1.4.0/share/psi4/basis/aug-cc-pvtz.gbs 

   => WB97X-D: Empirical Dispersion <=

    Chai and Head-Gordon Dispersion Correction
    Chai, J.-D.; Head-Gordon, M. (2010), J. Chem. Phys., 132: 6615-6620

        s6 =       1.000000


         ---------------------------------------------------------
                                   SCF
               by Justin Turney, Rob Parrish, Andy Simmonett
                          and Daniel G. A. Smith
                              UKS Reference
                        1 Threads,   9536 MiB Core
         ---------------------------------------------------------

  ==> Geometry <==

    Molecular point group: d2h
    Full point group: D_inf_h

    Geometry (in Angstrom), charge = -2, multiplicity = 1:

       Center              X                  Y                   Z               Mass       
    ------------   -----------------  -----------------  -----------------  -----------------
         S            0.000000000000     0.000000000000    -1.037872496520    31.972071174400
         S            0.000000000000     0.000000000000     1.037872496520    31.972071174400

  Running in d2h symmetry.

  Rotational constants: A = ************  B =      0.24474  C =      0.24474 [cm^-1]
  Rotational constants: A = ************  B =   7337.16737  C =   7337.16737 [MHz]
  Nuclear repulsion =   65.263009852217806

  Charge       = -2
  Multiplicity = 1
  Electrons    = 34
  Nalpha       = 17
  Nbeta        = 17

  ==> Algorithm <==

  SCF Algorithm Type is DF.
  DIIS enabled.
  MOM disabled.
  Fractional occupation disabled.
  Guess Type is READ.
  Energy threshold   = 1.00e-08
  Density threshold  = 1.00e-08
  Integral threshold = 0.00e+00

  ==> Primary Basis <==

  Basis Set: AUG-CC-PVTZ
    Blend: AUG-CC-PVTZ
    Number of shells: 32
    Number of basis function: 100
    Number of Cartesian functions: 118
    Spherical Harmonics?: true
    Max angular momentum: 3

  ==> DFT Potential <==

   => Composite Functional: WB97X-D <= 

    wB97X-D Hyb-GGA Exchange-Correlation Functional

    J.-D. Chai and M. Head-Gordon, Phys. Chem. Chem. Phys. 10, 6615 (2008)

    Deriv               =              1
    GGA                 =           TRUE
    Meta                =          FALSE

    Exchange Hybrid     =           TRUE
    MP2 Hybrid          =          FALSE

   => Exchange-Correlation Functionals <=

    1.0000   wB97D range-separated functional

   => Exact (HF) Exchange <=

    0.7780            HF,LR [omega = 0.2000]
    0.2220               HF 

   => Molecular Quadrature <=

    Radial Scheme          =       TREUTLER
    Pruning Scheme         =           NONE
    Nuclear Scheme         =       TREUTLER

    BS radius alpha        =              1
    Pruning alpha          =              1
    Radial Points          =             99
    Spherical Points       =            590
    Total Points           =         113394
    Total Blocks           =            982
    Max Points             =            256
    Max Functions          =            100
    Weights Tolerance      =       1.00E-15

   => Loading Basis Set <=

    Name: (AUG-CC-PVTZ AUX)
    Role: JKFIT
    Keyword: DF_BASIS_SCF
    atoms 1-2 entry S          line   730 file /apps/gb/PSI4/1.4.0/share/psi4/basis/aug-cc-pvtz-jkfit.gbs 

   => Loading Basis Set <=

    Name: AUG-CC-PVTZ
    Role: ORBITAL
    Keyword: BASIS
    atoms 1-2 entry S          line   906 file /apps/gb/PSI4/1.4.0/share/psi4/basis/aug-cc-pvtz.gbs 

  Reading orbitals from file 180, no projection.

  ==> Pre-Iterations <==

   -------------------------------------------------------
    Irrep   Nso     Nmo     Nalpha   Nbeta   Ndocc  Nsocc
   -------------------------------------------------------
     Ag        21      21       0       0       0       0
     B1g        5       5       0       0       0       0
     B2g       12      12       0       0       0       0
     B3g       12      12       0       0       0       0
     Au         5       5       0       0       0       0
     B1u       21      21       0       0       0       0
     B2u       12      12       0       0       0       0
     B3u       12      12       0       0       0       0
   -------------------------------------------------------
    Total     100     100      17      17      17       0
   -------------------------------------------------------

  ==> Integral Setup <==

  ==> DiskDFJK: Density-Fitted J/K Matrices <==

    J tasked:                  Yes
    K tasked:                  Yes
    wK tasked:                 Yes
    Omega:               2.000E-01
    OpenMP threads:              1
    Integrals threads:           1
    Memory [MiB]:             6843
    Algorithm:                Core
    Integral Cache:           NONE
    Schwarz Cutoff:          1E-12
    Fitting Condition:       1E-10

   => Auxiliary Basis Set <=

  Basis Set: (AUG-CC-PVTZ AUX)
    Blend: AUG-CC-PVTZ-JKFIT
    Number of shells: 84
    Number of basis function: 292
    Number of Cartesian functions: 360
    Spherical Harmonics?: true
    Max angular momentum: 4

  Cached 100.0% of DFT collocation blocks in 0.302 [GiB].

  Minimum eigenvalue in the overlap matrix is 3.2318659047E-04.
  Using Symmetric Orthogonalization.

  SCF Guess: Orbitals guess was supplied from a previous computation.

  ==> Iterations <==

                           Total Energy        Delta E     RMS |[F,P]|

   @DF-UKS iter   0:  -796.28550358820416   -7.96286e+02   4.23573e-03 
   @DF-UKS iter   1:  -796.31499327115466   -2.94897e-02   5.74708e-04 DIIS
   @DF-UKS iter   2:  -796.31532737294310   -3.34102e-04   3.44701e-04 DIIS
   @DF-UKS iter   3:  -796.31542417983951   -9.68069e-05   6.02871e-05 DIIS
   @DF-UKS iter   4:  -796.31543134230878   -7.16247e-06   3.88365e-05 DIIS
   @DF-UKS iter   5:  -796.31543435796277   -3.01565e-06   5.97868e-06 DIIS
   @DF-UKS iter   6:  -796.31543462740160   -2.69439e-07   1.96460e-06 DIIS
   @DF-UKS iter   7:  -796.31543464827496   -2.08734e-08   2.53882e-07 DIIS
   @DF-UKS iter   8:  -796.31543464869412   -4.19163e-10   4.06639e-08 DIIS
   @DF-UKS iter   9:  -796.31543464870128   -7.16227e-12   7.18661e-09 DIIS
  Energy and wave function converged.


  ==> Post-Iterations <==

   @Spin Contamination Metric:   1.421085472E-14
   @S^2 Expected:                0.000000000E+00
   @S^2 Observed:                1.421085472E-14
   @S   Expected:                0.000000000E+00
   @S   Observed:                0.000000000E+00

    Orbital Energies [Eh]
    ---------------------

    Alpha Occupied:                                                       

       1B1u  -88.635498     1Ag   -88.635490     2Ag    -7.641296  
       2B1u   -7.641235     3Ag    -5.592117     3B1u   -5.591860  
       1B3u   -5.584446     1B2u   -5.584446     1B2g   -5.584431  
       1B3g   -5.584431     4Ag    -0.428132     4B1u   -0.262704  
       5Ag    -0.011556     2B2u    0.020307     2B3u    0.020307  
       2B3g    0.130139     2B2g    0.130139  

    Alpha Virtual:                                                        

       5B1u    0.277912     6Ag     0.342240     3B3u    0.360983  
       3B2u    0.360983     3B2g    0.367691     3B3g    0.367691  
       7Ag     0.414878     6B1u    0.431791     7B1u    0.513142  
       8Ag     0.557299     1B1g    0.557299     4B2u    0.607773  
       4B3u    0.607773     9Ag     0.631189     8B1u    0.642429  
       1Au     0.642429     9B1u    0.688348     4B3g    0.693209  
       4B2g    0.693209     5B3u    0.842164     5B2u    0.842164  
      10B1u    0.922184    10Ag     0.941104     5B3g    0.942820  
       5B2g    0.942820     6B2u    0.956120     6B3u    0.956120  
      11Ag     0.972449    12Ag     0.997792     2B1g    0.997792  
      13Ag     1.053349    11B1u    1.076034     2Au     1.076035  
       7B3u    1.113383     7B2u    1.113383     6B3g    1.138787  
       6B2g    1.138787    14Ag     1.171811     3B1g    1.171811  
      12B1u    1.229545     7B2g    1.246206     7B3g    1.246206  
       8B2u    1.398131     8B3u    1.398131    13B1u    1.429498  
      14B1u    1.433252     3Au     1.433252     8B3g    1.603473  
       8B2g    1.603473    15Ag     1.664570    15B1u    1.857895  
       4B1g    2.227628    16Ag     2.227629    16B1u    2.284171  
       9B3u    2.287732     9B2u    2.287732     4Au     2.296746  
      17B1u    2.296747    17Ag     2.406719     9B2g    2.420818  
       9B3g    2.420818    10B3u    2.452553    10B2u    2.452553  
       5B1g    2.522368    18Ag     2.522372    19Ag     2.522727  
      11B3u    2.526845    11B2u    2.526845    12B3u    2.561411  
      12B2u    2.561411    10B2g    2.613438    10B3g    2.613438  
      11B2g    2.707524    11B3g    2.707524     5Au     2.718873  
      18B1u    2.718876    19B1u    2.821980    20Ag     2.834923  
      12B3g    3.001433    12B2g    3.001433    20B1u    4.037905  
      21Ag     4.796578    21B1u    5.699898  

    Beta Occupied:                                                        

       1B1u  -88.635498     1Ag   -88.635490     2Ag    -7.641296  
       2B1u   -7.641235     3Ag    -5.592117     3B1u   -5.591860  
       1B3u   -5.584446     1B2u   -5.584446     1B2g   -5.584431  
       1B3g   -5.584431     4Ag    -0.428132     4B1u   -0.262704  
       5Ag    -0.011556     2B2u    0.020307     2B3u    0.020307  
       2B3g    0.130139     2B2g    0.130139  

    Beta Virtual:                                                         

       5B1u    0.277912     6Ag     0.342240     3B3u    0.360983  
       3B2u    0.360983     3B2g    0.367691     3B3g    0.367691  
       7Ag     0.414878     6B1u    0.431791     7B1u    0.513142  
       8Ag     0.557299     1B1g    0.557299     4B2u    0.607773  
       4B3u    0.607773     9Ag     0.631189     8B1u    0.642429  
       1Au     0.642429     9B1u    0.688348     4B3g    0.693209  
       4B2g    0.693209     5B3u    0.842164     5B2u    0.842164  
      10B1u    0.922184    10Ag     0.941104     5B3g    0.942820  
       5B2g    0.942820     6B2u    0.956120     6B3u    0.956120  
      11Ag     0.972449    12Ag     0.997792     2B1g    0.997792  
      13Ag     1.053349    11B1u    1.076034     2Au     1.076035  
       7B3u    1.113383     7B2u    1.113383     6B3g    1.138787  
       6B2g    1.138787    14Ag     1.171811     3B1g    1.171811  
      12B1u    1.229545     7B2g    1.246206     7B3g    1.246206  
       8B2u    1.398131     8B3u    1.398131    13B1u    1.429498  
      14B1u    1.433252     3Au     1.433252     8B3g    1.603473  
       8B2g    1.603473    15Ag     1.664570    15B1u    1.857895  
       4B1g    2.227628    16Ag     2.227629    16B1u    2.284171  
       9B3u    2.287732     9B2u    2.287732     4Au     2.296746  
      17B1u    2.296747    17Ag     2.406719     9B2g    2.420818  
       9B3g    2.420818    10B3u    2.452553    10B2u    2.452553  
       5B1g    2.522368    18Ag     2.522372    19Ag     2.522727  
      11B3u    2.526845    11B2u    2.526845    12B3u    2.561411  
      12B2u    2.561411    10B2g    2.613438    10B3g    2.613438  
      11B2g    2.707524    11B3g    2.707524     5Au     2.718873  
      18B1u    2.718876    19B1u    2.821980    20Ag     2.834923  
      12B3g    3.001433    12B2g    3.001433    20B1u    4.037905  
      21Ag     4.796578    21B1u    5.699898  

    Final Occupation by Irrep:
             Ag   B1g   B2g   B3g    Au   B1u   B2u   B3u 
    DOCC [     5,    0,    2,    2,    0,    4,    2,    2 ]
    SOCC [     0,    0,    0,    0,    0,    0,    0,    0 ]

  @DF-UKS Final Energy:  -796.31543464870128

   => Energetics <=

    Nuclear Repulsion Energy =             65.2630098522178059
    One-Electron Energy =               -1244.3235552160388124
    Two-Electron Energy =                 420.3868386547532623
    DFT Exchange-Correlation Energy =     -37.6417145752940243
    Empirical Dispersion Energy =          -0.0000133643396679
    VV10 Nonlocal Energy =                  0.0000000000000000
    Total Energy =                       -796.3154346487012845

  UHF NO Occupations:
  HONO-2 :    2B3u 2.0000000
  HONO-1 :    4 Ag 2.0000000
  HONO-0 :    5 Ag 2.0000000
  LUNO+0 :    3B2u 0.0000000
  LUNO+1 :    3B3g 0.0000000
  LUNO+2 :    5B1u 0.0000000
  LUNO+3 :    6B1u 0.0000000


Computation Completed


Properties will be evaluated at   0.000000,   0.000000,   0.000000 [a0]

Properties computed using the SCF density matrix

  Nuclear Dipole Moment: [e a0]
     X:     0.0000      Y:     0.0000      Z:     0.0000

  Electronic Dipole Moment: [e a0]
     X:     0.0000      Y:     0.0000      Z:     0.0000

  Dipole Moment: [e a0]
     X:     0.0000      Y:     0.0000      Z:     0.0000     Total:     0.0000

  Dipole Moment: [D]
     X:     0.0000      Y:     0.0000      Z:     0.0000     Total:     0.0000


*** tstop() called on c1-9.compute.lan at Tue Feb  2 11:29:07 2021
Module time:
	user time   =       8.95 seconds =       0.15 minutes
	system time =       0.14 seconds =       0.00 minutes
	total time  =          9 seconds =       0.15 minutes
Total time:
	user time   =      25.16 seconds =       0.42 minutes
	system time =       0.58 seconds =       0.01 minutes
	total time  =         26 seconds =       0.43 minutes

*** tstart() called on c1-9.compute.lan
*** at Tue Feb  2 11:29:07 2021


         ------------------------------------------------------------
                                   SCF GRAD                          
                          Rob Parrish, Justin Turney,                
                       Andy Simmonett, and Alex Sokolov              
         ------------------------------------------------------------

  ==> Geometry <==

    Molecular point group: d2h
    Full point group: D_inf_h

    Geometry (in Angstrom), charge = -2, multiplicity = 1:

       Center              X                  Y                   Z               Mass       
    ------------   -----------------  -----------------  -----------------  -----------------
         S            0.000000000000     0.000000000000    -1.037872496520    31.972071174400
         S            0.000000000000     0.000000000000     1.037872496520    31.972071174400

  Nuclear repulsion =   65.263009852217806

  ==> Basis Set <==

  Basis Set: AUG-CC-PVTZ
    Blend: AUG-CC-PVTZ
    Number of shells: 32
    Number of basis function: 100
    Number of Cartesian functions: 118
    Spherical Harmonics?: true
    Max angular momentum: 3

  ==> DFJKGrad: Density-Fitted SCF Gradients <==

    Gradient:                    1
    J tasked:                  Yes
    K tasked:                  Yes
    wK tasked:                 Yes
    Omega:               2.000E-01
    OpenMP threads:              1
    Integrals threads:           1
    Memory [MiB]:             7152
    Schwarz Cutoff:          0E+00
    Fitting Condition:       1E-10

   => Auxiliary Basis Set <=

  Basis Set: (AUG-CC-PVTZ AUX)
    Blend: AUG-CC-PVTZ-JKFIT
    Number of shells: 84
    Number of basis function: 292
    Number of Cartesian functions: 360
    Spherical Harmonics?: true
    Max angular momentum: 4

  ==> DFT Potential <==

   => Composite Functional: WB97X-D <= 

    wB97X-D Hyb-GGA Exchange-Correlation Functional

    J.-D. Chai and M. Head-Gordon, Phys. Chem. Chem. Phys. 10, 6615 (2008)

    Deriv               =              1
    GGA                 =           TRUE
    Meta                =          FALSE

    Exchange Hybrid     =           TRUE
    MP2 Hybrid          =          FALSE

   => Exchange-Correlation Functionals <=

    1.0000   wB97D range-separated functional

   => Exact (HF) Exchange <=

    0.7780            HF,LR [omega = 0.2000]
    0.2220               HF 

   => Molecular Quadrature <=

    Radial Scheme          =       TREUTLER
    Pruning Scheme         =           NONE
    Nuclear Scheme         =       TREUTLER

    BS radius alpha        =              1
    Pruning alpha          =              1
    Radial Points          =             99
    Spherical Points       =            590
    Total Points           =         113394
    Total Blocks           =            982
    Max Points             =            256
    Max Functions          =            100
    Weights Tolerance      =       1.00E-15


  -Total Gradient:
     Atom            X                  Y                   Z
    ------   -----------------  -----------------  -----------------
       1        0.000000000000     0.000000000000     0.023009725514
       2       -0.000000000000     0.000000000000    -0.023009725514


*** tstop() called on c1-9.compute.lan at Tue Feb  2 11:29:11 2021
Module time:
	user time   =       4.06 seconds =       0.07 minutes
	system time =       0.04 seconds =       0.00 minutes
	total time  =          4 seconds =       0.07 minutes
Total time:
	user time   =      29.22 seconds =       0.49 minutes
	system time =       0.62 seconds =       0.01 minutes
	total time  =         30 seconds =       0.50 minutes

			-----------------------------------------
			 OPTKING 2.0: for geometry optimizations 
			  - R.A. King,  Bethel University        
			-----------------------------------------

	Previous internal coordinate definitions found.
	---Fragment 1 Geometry and Gradient---
	 S           0.0000000000        0.0000000000       -1.9612947716
	 S           0.0000000000        0.0000000000        1.9612947716
	             0.0000000000        0.0000000000        0.0230097255
	            -0.0000000000        0.0000000000       -0.0230097255

	---Fragment 1 Intrafragment Coordinates---
	 - Coordinate -           - BOHR/RAD -       - ANG/DEG -
	 R(1,2)           =         3.922590	       2.075745

	Current energy   :      -796.3154346487

	Energy change for the previous step:
		Projected    :         0.0029485294
		Actual       :        -0.0051656104

	Performing BFGS update.
	Previous computed or guess Hessian on step 1.
	Steps to be used in Hessian update: 1
	Taking RFO optimization step.
	Going to follow RFO solution 1.
	Using RFO vector 1.
	Norm of target step-size    0.11794
	Projected energy change by RFO approximation:         0.0041828278

	Back-transformation to cartesian coordinates...
	Successfully converged to displaced geometry.

	--- Internal Coordinate Step in ANG or DEG, aJ/ANG or AJ/DEG ---
	 ---------------------------------------------------------------------------
	   Coordinate                Previous        Force       Change         New 
	   ----------                --------       ------       ------       ------
	    1 R(1,2)          =      2.075745     0.189571     0.062410     2.138155
	 ---------------------------------------------------------------------------
	Successfully symmetrized geometry.

  ==> Convergence Check <==

  Measures of convergence in internal coordinates in au.
  Criteria marked as inactive (o), active & met (*), and active & unmet ( ).
  ---------------------------------------------------------------------------------------------
   Step     Total Energy     Delta E     MAX Force     RMS Force      MAX Disp      RMS Disp   
  ---------------------------------------------------------------------------------------------
    Convergence Criteria             o    2.00e-06 *    1.00e-06 *    6.00e-06 *    4.00e-06 *
  ---------------------------------------------------------------------------------------------
      2    -796.31543465   -5.17e-03 o    2.30e-02      2.30e-02      1.18e-01      1.18e-01    ~
  ---------------------------------------------------------------------------------------------

	Writing optimization data to binary file.
	Structure for next step:
	Cartesian Geometry (in Angstrom)
	    S     0.0000000000   0.0000000000  -1.0690776654
	    S     0.0000000000   0.0000000000   1.0690776654
			--------------------------
			 OPTKING Finished Execution 
			--------------------------

    Structure for next step:
    Molecular point group: d2h
    Full point group: D_inf_h

    Geometry (in Angstrom), charge = -2, multiplicity = 1:

    S       
    S             1          r1

    r1        =    2.1381553391

gradient() will perform analytic gradient computation.

*** tstart() called on c1-9.compute.lan
*** at Tue Feb  2 11:29:11 2021

   => Loading Basis Set <=

    Name: AUG-CC-PVTZ
    Role: ORBITAL
    Keyword: BASIS
    atoms 1-2 entry S          line   906 file /apps/gb/PSI4/1.4.0/share/psi4/basis/aug-cc-pvtz.gbs 

   => WB97X-D: Empirical Dispersion <=

    Chai and Head-Gordon Dispersion Correction
    Chai, J.-D.; Head-Gordon, M. (2010), J. Chem. Phys., 132: 6615-6620

        s6 =       1.000000


         ---------------------------------------------------------
                                   SCF
               by Justin Turney, Rob Parrish, Andy Simmonett
                          and Daniel G. A. Smith
                              UKS Reference
                        1 Threads,   9536 MiB Core
         ---------------------------------------------------------

  ==> Geometry <==

    Molecular point group: d2h
    Full point group: D_inf_h

    Geometry (in Angstrom), charge = -2, multiplicity = 1:

       Center              X                  Y                   Z               Mass       
    ------------   -----------------  -----------------  -----------------  -----------------
         S            0.000000000000     0.000000000000    -1.069077669560    31.972071174400
         S            0.000000000000     0.000000000000     1.069077669560    31.972071174400

  Running in d2h symmetry.

  Rotational constants: A = ************  B =      0.23066  C =      0.23066 [cm^-1]
  Rotational constants: A = ************  B =   6915.09126  C =   6915.09126 [MHz]
  Nuclear repulsion =   63.358056102343255

  Charge       = -2
  Multiplicity = 1
  Electrons    = 34
  Nalpha       = 17
  Nbeta        = 17

  ==> Algorithm <==

  SCF Algorithm Type is DF.
  DIIS enabled.
  MOM disabled.
  Fractional occupation disabled.
  Guess Type is READ.
  Energy threshold   = 1.00e-08
  Density threshold  = 1.00e-08
  Integral threshold = 0.00e+00

  ==> Primary Basis <==

  Basis Set: AUG-CC-PVTZ
    Blend: AUG-CC-PVTZ
    Number of shells: 32
    Number of basis function: 100
    Number of Cartesian functions: 118
    Spherical Harmonics?: true
    Max angular momentum: 3

  ==> DFT Potential <==

   => Composite Functional: WB97X-D <= 

    wB97X-D Hyb-GGA Exchange-Correlation Functional

    J.-D. Chai and M. Head-Gordon, Phys. Chem. Chem. Phys. 10, 6615 (2008)

    Deriv               =              1
    GGA                 =           TRUE
    Meta                =          FALSE

    Exchange Hybrid     =           TRUE
    MP2 Hybrid          =          FALSE

   => Exchange-Correlation Functionals <=

    1.0000   wB97D range-separated functional

   => Exact (HF) Exchange <=

    0.7780            HF,LR [omega = 0.2000]
    0.2220               HF 

   => Molecular Quadrature <=

    Radial Scheme          =       TREUTLER
    Pruning Scheme         =           NONE
    Nuclear Scheme         =       TREUTLER

    BS radius alpha        =              1
    Pruning alpha          =              1
    Radial Points          =             99
    Spherical Points       =            590
    Total Points           =         113420
    Total Blocks           =            982
    Max Points             =            256
    Max Functions          =            100
    Weights Tolerance      =       1.00E-15

   => Loading Basis Set <=

    Name: (AUG-CC-PVTZ AUX)
    Role: JKFIT
    Keyword: DF_BASIS_SCF
    atoms 1-2 entry S          line   730 file /apps/gb/PSI4/1.4.0/share/psi4/basis/aug-cc-pvtz-jkfit.gbs 

   => Loading Basis Set <=

    Name: AUG-CC-PVTZ
    Role: ORBITAL
    Keyword: BASIS
    atoms 1-2 entry S          line   906 file /apps/gb/PSI4/1.4.0/share/psi4/basis/aug-cc-pvtz.gbs 

  Reading orbitals from file 180, no projection.

  ==> Pre-Iterations <==

   -------------------------------------------------------
    Irrep   Nso     Nmo     Nalpha   Nbeta   Ndocc  Nsocc
   -------------------------------------------------------
     Ag        21      21       0       0       0       0
     B1g        5       5       0       0       0       0
     B2g       12      12       0       0       0       0
     B3g       12      12       0       0       0       0
     Au         5       5       0       0       0       0
     B1u       21      21       0       0       0       0
     B2u       12      12       0       0       0       0
     B3u       12      12       0       0       0       0
   -------------------------------------------------------
    Total     100     100      17      17      17       0
   -------------------------------------------------------

  ==> Integral Setup <==

  ==> DiskDFJK: Density-Fitted J/K Matrices <==

    J tasked:                  Yes
    K tasked:                  Yes
    wK tasked:                 Yes
    Omega:               2.000E-01
    OpenMP threads:              1
    Integrals threads:           1
    Memory [MiB]:             6843
    Algorithm:                Core
    Integral Cache:           NONE
    Schwarz Cutoff:          1E-12
    Fitting Condition:       1E-10

   => Auxiliary Basis Set <=

  Basis Set: (AUG-CC-PVTZ AUX)
    Blend: AUG-CC-PVTZ-JKFIT
    Number of shells: 84
    Number of basis function: 292
    Number of Cartesian functions: 360
    Spherical Harmonics?: true
    Max angular momentum: 4

  Cached 100.0% of DFT collocation blocks in 0.302 [GiB].

  Minimum eigenvalue in the overlap matrix is 3.7168841422E-04.
  Using Symmetric Orthogonalization.

  SCF Guess: Orbitals guess was supplied from a previous computation.

  ==> Iterations <==

                           Total Energy        Delta E     RMS |[F,P]|

   @DF-UKS iter   0:  -796.29570549998846   -7.96296e+02   3.13480e-03 
   @DF-UKS iter   1:  -796.31682003450669   -2.11145e-02   4.52783e-04 DIIS
   @DF-UKS iter   2:  -796.31700402003855   -1.83986e-04   2.84598e-04 DIIS
   @DF-UKS iter   3:  -796.31707221535817   -6.81953e-05   5.41470e-05 DIIS
   @DF-UKS iter   4:  -796.31707669536354   -4.48001e-06   2.29146e-05 DIIS
   @DF-UKS iter   5:  -796.31707848101939   -1.78566e-06   4.02864e-06 DIIS
   @DF-UKS iter   6:  -796.31707860968322   -1.28664e-07   1.35754e-06 DIIS
   @DF-UKS iter   7:  -796.31707861967834   -9.99512e-09   1.80283e-07 DIIS
   @DF-UKS iter   8:  -796.31707861989366   -2.15323e-10   2.97103e-08 DIIS
   @DF-UKS iter   9:  -796.31707861989855   -4.88853e-12   5.02697e-09 DIIS
  Energy and wave function converged.


  ==> Post-Iterations <==

   @Spin Contamination Metric:  -7.105427358E-15
   @S^2 Expected:                0.000000000E+00
   @S^2 Observed:               -7.105427358E-15
   @S   Expected:                0.000000000E+00
   @S   Observed:                0.000000000E+00

    Orbital Energies [Eh]
    ---------------------

    Alpha Occupied:                                                       

       1B1u  -88.637355     1Ag   -88.637347     2Ag    -7.642397  
       2B1u   -7.642355     3Ag    -5.593399     3B1u   -5.593222  
       1B3u   -5.585515     1B2u   -5.585515     1B2g   -5.585506  
       1B3g   -5.585506     4Ag    -0.415702     4B1u   -0.267966  
       5Ag    -0.006962     2B3u    0.025954     2B2u    0.025954  
       2B3g    0.125526     2B2g    0.125526  

    Alpha Virtual:                                                        

       5B1u    0.278331     6Ag     0.343032     3B3u    0.361928  
       3B2u    0.361928     3B3g    0.367927     3B2g    0.367927  
       7Ag     0.415397     6B1u    0.423173     7B1u    0.507481  
       1B1g    0.557695     8Ag     0.557695     4B2u    0.605482  
       4B3u    0.605482     9Ag     0.634835     1Au     0.640485  
       8B1u    0.640485     9B1u    0.680939     4B2g    0.693248  
       4B3g    0.693248     5B3u    0.844075     5B2u    0.844075  
      10B1u    0.925361     5B2g    0.941350     5B3g    0.941350  
      10Ag     0.945832     6B3u    0.957689     6B2u    0.957689  
      11Ag     0.979063     2B1g    1.002713    12Ag     1.002714  
      13Ag     1.042619     2Au     1.073743    11B1u    1.073744  
       7B3u    1.115907     7B2u    1.115907     6B2g    1.130637  
       6B3g    1.130637    14Ag     1.163869     3B1g    1.163869  
      12B1u    1.211580     7B3g    1.241626     7B2g    1.241626  
       8B3u    1.386277     8B2u    1.386277    13B1u    1.406634  
       3Au     1.423566    14B1u    1.423566     8B2g    1.595701  
       8B3g    1.595701    15Ag     1.641064    15B1u    1.853088  
      16Ag     2.226978     4B1g    2.226980     9B3u    2.281783  
       9B2u    2.281783    16B1u    2.293807     4Au     2.293808  
      17B1u    2.301966     9B2g    2.427096     9B3g    2.427096  
      17Ag     2.427802    10B3u    2.464172    10B2u    2.464172  
      11B3u    2.527125    11B2u    2.527125    18Ag     2.536406  
       5B1g    2.538878    19Ag     2.538883    12B2u    2.564000  
      12B3u    2.564000    10B3g    2.611232    10B2g    2.611232  
      11B2g    2.678801    11B3g    2.678801     5Au     2.701267  
      18B1u    2.701273    20Ag     2.745209    19B1u    2.796359  
      12B2g    2.958655    12B3g    2.958655    20B1u    3.957172  
      21Ag     4.721890    21B1u    5.697917  

    Beta Occupied:                                                        

       1B1u  -88.637355     1Ag   -88.637347     2Ag    -7.642397  
       2B1u   -7.642355     3Ag    -5.593399     3B1u   -5.593222  
       1B3u   -5.585515     1B2u   -5.585515     1B2g   -5.585506  
       1B3g   -5.585506     4Ag    -0.415702     4B1u   -0.267966  
       5Ag    -0.006962     2B3u    0.025954     2B2u    0.025954  
       2B3g    0.125526     2B2g    0.125526  

    Beta Virtual:                                                         

       5B1u    0.278331     6Ag     0.343032     3B3u    0.361928  
       3B2u    0.361928     3B3g    0.367927     3B2g    0.367927  
       7Ag     0.415397     6B1u    0.423173     7B1u    0.507481  
       1B1g    0.557695     8Ag     0.557695     4B2u    0.605482  
       4B3u    0.605482     9Ag     0.634835     1Au     0.640485  
       8B1u    0.640485     9B1u    0.680939     4B2g    0.693248  
       4B3g    0.693248     5B3u    0.844075     5B2u    0.844075  
      10B1u    0.925361     5B2g    0.941350     5B3g    0.941350  
      10Ag     0.945832     6B3u    0.957689     6B2u    0.957689  
      11Ag     0.979063     2B1g    1.002713    12Ag     1.002714  
      13Ag     1.042619     2Au     1.073743    11B1u    1.073744  
       7B3u    1.115907     7B2u    1.115907     6B2g    1.130637  
       6B3g    1.130637    14Ag     1.163869     3B1g    1.163869  
      12B1u    1.211580     7B3g    1.241626     7B2g    1.241626  
       8B3u    1.386277     8B2u    1.386277    13B1u    1.406634  
       3Au     1.423566    14B1u    1.423566     8B2g    1.595701  
       8B3g    1.595701    15Ag     1.641064    15B1u    1.853088  
      16Ag     2.226978     4B1g    2.226980     9B3u    2.281783  
       9B2u    2.281783    16B1u    2.293807     4Au     2.293808  
      17B1u    2.301966     9B2g    2.427096     9B3g    2.427096  
      17Ag     2.427802    10B3u    2.464172    10B2u    2.464172  
      11B3u    2.527125    11B2u    2.527125    18Ag     2.536406  
       5B1g    2.538878    19Ag     2.538883    12B2u    2.564000  
      12B3u    2.564000    10B3g    2.611232    10B2g    2.611232  
      11B2g    2.678801    11B3g    2.678801     5Au     2.701267  
      18B1u    2.701273    20Ag     2.745209    19B1u    2.796359  
      12B2g    2.958655    12B3g    2.958655    20B1u    3.957172  
      21Ag     4.721890    21B1u    5.697917  

    Final Occupation by Irrep:
             Ag   B1g   B2g   B3g    Au   B1u   B2u   B3u 
    DOCC [     5,    0,    2,    2,    0,    4,    2,    2 ]
    SOCC [     0,    0,    0,    0,    0,    0,    0,    0 ]

  @DF-UKS Final Energy:  -796.31707861989855

   => Energetics <=

    Nuclear Repulsion Energy =             63.3580561023432551
    One-Electron Energy =               -1240.5272097691706676
    Two-Electron Energy =                 418.4815358021415364
    DFT Exchange-Correlation Energy =     -37.6294447947442592
    Empirical Dispersion Energy =          -0.0000159604682308
    VV10 Nonlocal Energy =                  0.0000000000000000
    Total Energy =                       -796.3170786198984388

  UHF NO Occupations:
  HONO-2 :    2B3g 2.0000000
  HONO-1 :    2B3u 2.0000000
  HONO-0 :    4B1u 2.0000000
  LUNO+0 :    5B1u 0.0000000
  LUNO+1 :    6B1u 0.0000000
  LUNO+2 :    6 Ag 0.0000000
  LUNO+3 :    7 Ag 0.0000000


Computation Completed


Properties will be evaluated at   0.000000,   0.000000,   0.000000 [a0]

Properties computed using the SCF density matrix

  Nuclear Dipole Moment: [e a0]
     X:     0.0000      Y:     0.0000      Z:     0.0000

  Electronic Dipole Moment: [e a0]
     X:     0.0000      Y:     0.0000      Z:     0.0000

  Dipole Moment: [e a0]
     X:     0.0000      Y:     0.0000      Z:     0.0000     Total:     0.0000

  Dipole Moment: [D]
     X:     0.0000      Y:     0.0000      Z:     0.0000     Total:     0.0000


*** tstop() called on c1-9.compute.lan at Tue Feb  2 11:29:20 2021
Module time:
	user time   =       8.99 seconds =       0.15 minutes
	system time =       0.08 seconds =       0.00 minutes
	total time  =          9 seconds =       0.15 minutes
Total time:
	user time   =      38.22 seconds =       0.64 minutes
	system time =       0.70 seconds =       0.01 minutes
	total time  =         39 seconds =       0.65 minutes

*** tstart() called on c1-9.compute.lan
*** at Tue Feb  2 11:29:20 2021


         ------------------------------------------------------------
                                   SCF GRAD                          
                          Rob Parrish, Justin Turney,                
                       Andy Simmonett, and Alex Sokolov              
         ------------------------------------------------------------

  ==> Geometry <==

    Molecular point group: d2h
    Full point group: D_inf_h

    Geometry (in Angstrom), charge = -2, multiplicity = 1:

       Center              X                  Y                   Z               Mass       
    ------------   -----------------  -----------------  -----------------  -----------------
         S            0.000000000000     0.000000000000    -1.069077669560    31.972071174400
         S            0.000000000000     0.000000000000     1.069077669560    31.972071174400

  Nuclear repulsion =   63.358056102343255

  ==> Basis Set <==

  Basis Set: AUG-CC-PVTZ
    Blend: AUG-CC-PVTZ
    Number of shells: 32
    Number of basis function: 100
    Number of Cartesian functions: 118
    Spherical Harmonics?: true
    Max angular momentum: 3

  ==> DFJKGrad: Density-Fitted SCF Gradients <==

    Gradient:                    1
    J tasked:                  Yes
    K tasked:                  Yes
    wK tasked:                 Yes
    Omega:               2.000E-01
    OpenMP threads:              1
    Integrals threads:           1
    Memory [MiB]:             7152
    Schwarz Cutoff:          0E+00
    Fitting Condition:       1E-10

   => Auxiliary Basis Set <=

  Basis Set: (AUG-CC-PVTZ AUX)
    Blend: AUG-CC-PVTZ-JKFIT
    Number of shells: 84
    Number of basis function: 292
    Number of Cartesian functions: 360
    Spherical Harmonics?: true
    Max angular momentum: 4

  ==> DFT Potential <==

   => Composite Functional: WB97X-D <= 

    wB97X-D Hyb-GGA Exchange-Correlation Functional

    J.-D. Chai and M. Head-Gordon, Phys. Chem. Chem. Phys. 10, 6615 (2008)

    Deriv               =              1
    GGA                 =           TRUE
    Meta                =          FALSE

    Exchange Hybrid     =           TRUE
    MP2 Hybrid          =          FALSE

   => Exchange-Correlation Functionals <=

    1.0000   wB97D range-separated functional

   => Exact (HF) Exchange <=

    0.7780            HF,LR [omega = 0.2000]
    0.2220               HF 

   => Molecular Quadrature <=

    Radial Scheme          =       TREUTLER
    Pruning Scheme         =           NONE
    Nuclear Scheme         =       TREUTLER

    BS radius alpha        =              1
    Pruning alpha          =              1
    Radial Points          =             99
    Spherical Points       =            590
    Total Points           =         113420
    Total Blocks           =            982
    Max Points             =            256
    Max Functions          =            100
    Weights Tolerance      =       1.00E-15


  -Total Gradient:
     Atom            X                  Y                   Z
    ------   -----------------  -----------------  -----------------
       1        0.000000000000     0.000000000000     0.005605951445
       2        0.000000000000    -0.000000000000    -0.005605951445


*** tstop() called on c1-9.compute.lan at Tue Feb  2 11:29:24 2021
Module time:
	user time   =       4.15 seconds =       0.07 minutes
	system time =       0.05 seconds =       0.00 minutes
	total time  =          4 seconds =       0.07 minutes
Total time:
	user time   =      42.37 seconds =       0.71 minutes
	system time =       0.75 seconds =       0.01 minutes
	total time  =         43 seconds =       0.72 minutes

			-----------------------------------------
			 OPTKING 2.0: for geometry optimizations 
			  - R.A. King,  Bethel University        
			-----------------------------------------

	Previous internal coordinate definitions found.
	---Fragment 1 Geometry and Gradient---
	 S           0.0000000000        0.0000000000       -2.0202640023
	 S           0.0000000000        0.0000000000        2.0202640023
	             0.0000000000        0.0000000000        0.0056059514
	             0.0000000000       -0.0000000000       -0.0056059514

	---Fragment 1 Intrafragment Coordinates---
	 - Coordinate -           - BOHR/RAD -       - ANG/DEG -
	 R(1,2)           =         4.040528	       2.138155

	Current energy   :      -796.3170786199

	Energy change for the previous step:
		Projected    :         0.0041828278
		Actual       :        -0.0016439712

	Performing BFGS update.
	Previous computed or guess Hessian on step 1.
	Steps to be used in Hessian update: 2 1
	Taking RFO optimization step.
	Going to follow RFO solution 1.
	Using RFO vector 1.
	Norm of target step-size    0.03253
	Projected energy change by RFO approximation:         0.0003464245

	Back-transformation to cartesian coordinates...
	Successfully converged to displaced geometry.

	--- Internal Coordinate Step in ANG or DEG, aJ/ANG or AJ/DEG ---
	 ---------------------------------------------------------------------------
	   Coordinate                Previous        Force       Change         New 
	   ----------                --------       ------       ------       ------
	    1 R(1,2)          =      2.138155     0.046186     0.017215     2.155370
	 ---------------------------------------------------------------------------
	Successfully symmetrized geometry.

  ==> Convergence Check <==

  Measures of convergence in internal coordinates in au.
  Criteria marked as inactive (o), active & met (*), and active & unmet ( ).
  ---------------------------------------------------------------------------------------------
   Step     Total Energy     Delta E     MAX Force     RMS Force      MAX Disp      RMS Disp   
  ---------------------------------------------------------------------------------------------
    Convergence Criteria             o    2.00e-06 *    1.00e-06 *    6.00e-06 *    4.00e-06 *
  ---------------------------------------------------------------------------------------------
      3    -796.31707862   -1.64e-03 o    5.61e-03      5.61e-03      3.25e-02      3.25e-02    ~
  ---------------------------------------------------------------------------------------------

	Writing optimization data to binary file.
	Structure for next step:
	Cartesian Geometry (in Angstrom)
	    S     0.0000000000   0.0000000000  -1.0776852463
	    S     0.0000000000   0.0000000000   1.0776852463
			--------------------------
			 OPTKING Finished Execution 
			--------------------------

    Structure for next step:
    Molecular point group: d2h
    Full point group: D_inf_h

    Geometry (in Angstrom), charge = -2, multiplicity = 1:

    S       
    S             1          r1

    r1        =    2.1553705011

gradient() will perform analytic gradient computation.

*** tstart() called on c1-9.compute.lan
*** at Tue Feb  2 11:29:25 2021

   => Loading Basis Set <=

    Name: AUG-CC-PVTZ
    Role: ORBITAL
    Keyword: BASIS
    atoms 1-2 entry S          line   906 file /apps/gb/PSI4/1.4.0/share/psi4/basis/aug-cc-pvtz.gbs 

   => WB97X-D: Empirical Dispersion <=

    Chai and Head-Gordon Dispersion Correction
    Chai, J.-D.; Head-Gordon, M. (2010), J. Chem. Phys., 132: 6615-6620

        s6 =       1.000000


         ---------------------------------------------------------
                                   SCF
               by Justin Turney, Rob Parrish, Andy Simmonett
                          and Daniel G. A. Smith
                              UKS Reference
                        1 Threads,   9536 MiB Core
         ---------------------------------------------------------

  ==> Geometry <==

    Molecular point group: d2h
    Full point group: D_inf_h

    Geometry (in Angstrom), charge = -2, multiplicity = 1:

       Center              X                  Y                   Z               Mass       
    ------------   -----------------  -----------------  -----------------  -----------------
         S            0.000000000000     0.000000000000    -1.077685250526    31.972071174400
         S            0.000000000000     0.000000000000     1.077685250526    31.972071174400

  Running in d2h symmetry.

  Rotational constants: A = ************  B =      0.22699  C =      0.22699 [cm^-1]
  Rotational constants: A = ************  B =   6805.06934  C =   6805.06934 [MHz]
  Nuclear repulsion =   62.852008907715721

  Charge       = -2
  Multiplicity = 1
  Electrons    = 34
  Nalpha       = 17
  Nbeta        = 17

  ==> Algorithm <==

  SCF Algorithm Type is DF.
  DIIS enabled.
  MOM disabled.
  Fractional occupation disabled.
  Guess Type is READ.
  Energy threshold   = 1.00e-08
  Density threshold  = 1.00e-08
  Integral threshold = 0.00e+00

  ==> Primary Basis <==

  Basis Set: AUG-CC-PVTZ
    Blend: AUG-CC-PVTZ
    Number of shells: 32
    Number of basis function: 100
    Number of Cartesian functions: 118
    Spherical Harmonics?: true
    Max angular momentum: 3

  ==> DFT Potential <==

   => Composite Functional: WB97X-D <= 

    wB97X-D Hyb-GGA Exchange-Correlation Functional

    J.-D. Chai and M. Head-Gordon, Phys. Chem. Chem. Phys. 10, 6615 (2008)

    Deriv               =              1
    GGA                 =           TRUE
    Meta                =          FALSE

    Exchange Hybrid     =           TRUE
    MP2 Hybrid          =          FALSE

   => Exchange-Correlation Functionals <=

    1.0000   wB97D range-separated functional

   => Exact (HF) Exchange <=

    0.7780            HF,LR [omega = 0.2000]
    0.2220               HF 

   => Molecular Quadrature <=

    Radial Scheme          =       TREUTLER
    Pruning Scheme         =           NONE
    Nuclear Scheme         =       TREUTLER

    BS radius alpha        =              1
    Pruning alpha          =              1
    Radial Points          =             99
    Spherical Points       =            590
    Total Points           =         113428
    Total Blocks           =            980
    Max Points             =            256
    Max Functions          =            100
    Weights Tolerance      =       1.00E-15

   => Loading Basis Set <=

    Name: (AUG-CC-PVTZ AUX)
    Role: JKFIT
    Keyword: DF_BASIS_SCF
    atoms 1-2 entry S          line   730 file /apps/gb/PSI4/1.4.0/share/psi4/basis/aug-cc-pvtz-jkfit.gbs 

   => Loading Basis Set <=

    Name: AUG-CC-PVTZ
    Role: ORBITAL
    Keyword: BASIS
    atoms 1-2 entry S          line   906 file /apps/gb/PSI4/1.4.0/share/psi4/basis/aug-cc-pvtz.gbs 

  Reading orbitals from file 180, no projection.

  ==> Pre-Iterations <==

   -------------------------------------------------------
    Irrep   Nso     Nmo     Nalpha   Nbeta   Ndocc  Nsocc
   -------------------------------------------------------
     Ag        21      21       0       0       0       0
     B1g        5       5       0       0       0       0
     B2g       12      12       0       0       0       0
     B3g       12      12       0       0       0       0
     Au         5       5       0       0       0       0
     B1u       21      21       0       0       0       0
     B2u       12      12       0       0       0       0
     B3u       12      12       0       0       0       0
   -------------------------------------------------------
    Total     100     100      17      17      17       0
   -------------------------------------------------------

  ==> Integral Setup <==

  ==> DiskDFJK: Density-Fitted J/K Matrices <==

    J tasked:                  Yes
    K tasked:                  Yes
    wK tasked:                 Yes
    Omega:               2.000E-01
    OpenMP threads:              1
    Integrals threads:           1
    Memory [MiB]:             6843
    Algorithm:                Core
    Integral Cache:           NONE
    Schwarz Cutoff:          1E-12
    Fitting Condition:       1E-10

   => Auxiliary Basis Set <=

  Basis Set: (AUG-CC-PVTZ AUX)
    Blend: AUG-CC-PVTZ-JKFIT
    Number of shells: 84
    Number of basis function: 292
    Number of Cartesian functions: 360
    Spherical Harmonics?: true
    Max angular momentum: 4

  Cached 100.0% of DFT collocation blocks in 0.302 [GiB].

  Minimum eigenvalue in the overlap matrix is 3.8615733160E-04.
  Using Symmetric Orthogonalization.

  SCF Guess: Orbitals guess was supplied from a previous computation.

  ==> Iterations <==

                           Total Energy        Delta E     RMS |[F,P]|

   @DF-UKS iter   0:  -796.31171242793380   -7.96312e+02   8.17556e-04 
   @DF-UKS iter   1:  -796.31717546360005   -5.46304e-03   1.21238e-04 DIIS
   @DF-UKS iter   2:  -796.31718762837272   -1.21648e-05   7.89284e-05 DIIS
   @DF-UKS iter   3:  -796.31719296171627   -5.33334e-06   1.54016e-05 DIIS
   @DF-UKS iter   4:  -796.31719328756299   -3.25847e-07   5.23558e-06 DIIS
   @DF-UKS iter   5:  -796.31719340809855   -1.20536e-07   9.99302e-07 DIIS
   @DF-UKS iter   6:  -796.31719341601513   -7.91658e-09   3.39986e-07 DIIS
   @DF-UKS iter   7:  -796.31719341662983   -6.14705e-10   4.55054e-08 DIIS
   @DF-UKS iter   8:  -796.31719341664348   -1.36424e-11   7.58722e-09 DIIS
  Energy and wave function converged.


  ==> Post-Iterations <==

   @Spin Contamination Metric:  -7.105427358E-15
   @S^2 Expected:                0.000000000E+00
   @S^2 Observed:               -7.105427358E-15
   @S   Expected:                0.000000000E+00
   @S   Observed:                0.000000000E+00

    Orbital Energies [Eh]
    ---------------------

    Alpha Occupied:                                                       

       1B1u  -88.637917     1Ag   -88.637909     2Ag    -7.642777  
       2B1u   -7.642739     3Ag    -5.593826     3B1u   -5.593666  
       1B2u   -5.585886     1B3u   -5.585886     1B3g   -5.585878  
       1B2g   -5.585878     4Ag    -0.412597     4B1u   -0.269429  
       5Ag    -0.005754     2B2u    0.027332     2B3u    0.027332  
       2B3g    0.124250     2B2g    0.124250  

    Alpha Virtual:                                                        

       5B1u    0.278417     6Ag     0.343222     3B3u    0.362145  
       3B2u    0.362145     3B3g    0.367972     3B2g    0.367972  
       7Ag     0.415508     6B1u    0.420630     7B1u    0.506130  
       1B1g    0.557760     8Ag     0.557760     4B3u    0.604805  
       4B2u    0.604805     9Ag     0.635743     1Au     0.639906  
       8B1u    0.639906     9B1u    0.678992     4B2g    0.693202  
       4B3g    0.693202     5B3u    0.844446     5B2u    0.844446  
      10B1u    0.926233     5B2g    0.940834     5B3g    0.940834  
      10Ag     0.946811     6B3u    0.958161     6B2u    0.958161  
      11Ag     0.980844     2B1g    1.003954    12Ag     1.003955  
      13Ag     1.039860     2Au     1.073073    11B1u    1.073074  
       7B2u    1.116555     7B3u    1.116555     6B2g    1.128483  
       6B3g    1.128483     3B1g    1.161669    14Ag     1.161669  
      12B1u    1.206832     7B3g    1.240327     7B2g    1.240327  
       8B2u    1.382916     8B3u    1.382916    13B1u    1.400602  
       3Au     1.420857    14B1u    1.420857     8B2g    1.593620  
       8B3g    1.593620    15Ag     1.634628    15B1u    1.851280  
      16Ag     2.226774     4B1g    2.226776     9B3u    2.278841  
       9B2u    2.278841    16B1u    2.292949     4Au     2.292951  
      17B1u    2.307202     9B3g    2.428429     9B2g    2.428429  
      17Ag     2.433833    10B3u    2.469418    10B2u    2.469418  
      11B2u    2.527151    11B3u    2.527151    18Ag     2.539616  
       5B1g    2.542925    19Ag     2.542930    12B2u    2.564512  
      12B3u    2.564512    10B3g    2.610625    10B2g    2.610625  
      11B3g    2.671447    11B2g    2.671447     5Au     2.696775  
      18B1u    2.696781    20Ag     2.722146    19B1u    2.789828  
      12B2g    2.946993    12B3g    2.946993    20B1u    3.931368  
      21Ag     4.703178    21B1u    5.697924  

    Beta Occupied:                                                        

       1B1u  -88.637917     1Ag   -88.637909     2Ag    -7.642777  
       2B1u   -7.642739     3Ag    -5.593826     3B1u   -5.593666  
       1B2u   -5.585886     1B3u   -5.585886     1B3g   -5.585878  
       1B2g   -5.585878     4Ag    -0.412597     4B1u   -0.269429  
       5Ag    -0.005754     2B2u    0.027332     2B3u    0.027332  
       2B3g    0.124250     2B2g    0.124250  

    Beta Virtual:                                                         

       5B1u    0.278417     6Ag     0.343222     3B3u    0.362145  
       3B2u    0.362145     3B3g    0.367972     3B2g    0.367972  
       7Ag     0.415508     6B1u    0.420630     7B1u    0.506130  
       1B1g    0.557760     8Ag     0.557760     4B3u    0.604805  
       4B2u    0.604805     9Ag     0.635743     1Au     0.639906  
       8B1u    0.639906     9B1u    0.678992     4B2g    0.693202  
       4B3g    0.693202     5B3u    0.844446     5B2u    0.844446  
      10B1u    0.926233     5B2g    0.940834     5B3g    0.940834  
      10Ag     0.946811     6B3u    0.958161     6B2u    0.958161  
      11Ag     0.980844     2B1g    1.003954    12Ag     1.003955  
      13Ag     1.039860     2Au     1.073073    11B1u    1.073074  
       7B2u    1.116555     7B3u    1.116555     6B2g    1.128483  
       6B3g    1.128483     3B1g    1.161669    14Ag     1.161669  
      12B1u    1.206832     7B3g    1.240327     7B2g    1.240327  
       8B2u    1.382916     8B3u    1.382916    13B1u    1.400602  
       3Au     1.420857    14B1u    1.420857     8B2g    1.593620  
       8B3g    1.593620    15Ag     1.634628    15B1u    1.851280  
      16Ag     2.226774     4B1g    2.226776     9B3u    2.278841  
       9B2u    2.278841    16B1u    2.292949     4Au     2.292951  
      17B1u    2.307202     9B3g    2.428429     9B2g    2.428429  
      17Ag     2.433833    10B3u    2.469418    10B2u    2.469418  
      11B2u    2.527151    11B3u    2.527151    18Ag     2.539616  
       5B1g    2.542925    19Ag     2.542930    12B2u    2.564512  
      12B3u    2.564512    10B3g    2.610625    10B2g    2.610625  
      11B3g    2.671447    11B2g    2.671447     5Au     2.696775  
      18B1u    2.696781    20Ag     2.722146    19B1u    2.789828  
      12B2g    2.946993    12B3g    2.946993    20B1u    3.931368  
      21Ag     4.703178    21B1u    5.697924  

    Final Occupation by Irrep:
             Ag   B1g   B2g   B3g    Au   B1u   B2u   B3u 
    DOCC [     5,    0,    2,    2,    0,    4,    2,    2 ]
    SOCC [     0,    0,    0,    0,    0,    0,    0,    0 ]

  @DF-UKS Final Energy:  -796.31719341664348

   => Energetics <=

    Nuclear Repulsion Energy =             62.8520089077157209
    One-Electron Energy =               -1239.5151439741639479
    Two-Electron Energy =                 417.9722135022636849
    DFT Exchange-Correlation Energy =     -37.6262551064939856
    Empirical Dispersion Energy =          -0.0000167459649701
    VV10 Nonlocal Energy =                  0.0000000000000000
    Total Energy =                       -796.3171934166434767

  UHF NO Occupations:
  HONO-2 :    4B1u 2.0000000
  HONO-1 :    5 Ag 2.0000000
  HONO-0 :    2B2g 2.0000000
  LUNO+0 :    6 Ag 0.0000000
  LUNO+1 :    7 Ag 0.0000000
  LUNO+2 :    5B1u 0.0000000
  LUNO+3 :    3B2u 0.0000000


Computation Completed


Properties will be evaluated at   0.000000,   0.000000,   0.000000 [a0]

Properties computed using the SCF density matrix

  Nuclear Dipole Moment: [e a0]
     X:     0.0000      Y:     0.0000      Z:     0.0000

  Electronic Dipole Moment: [e a0]
     X:     0.0000      Y:     0.0000      Z:     0.0000

  Dipole Moment: [e a0]
     X:     0.0000      Y:     0.0000      Z:     0.0000     Total:     0.0000

  Dipole Moment: [D]
     X:     0.0000      Y:     0.0000      Z:     0.0000     Total:     0.0000


*** tstop() called on c1-9.compute.lan at Tue Feb  2 11:29:33 2021
Module time:
	user time   =       8.17 seconds =       0.14 minutes
	system time =       0.09 seconds =       0.00 minutes
	total time  =          8 seconds =       0.13 minutes
Total time:
	user time   =      50.55 seconds =       0.84 minutes
	system time =       0.84 seconds =       0.01 minutes
	total time  =         52 seconds =       0.87 minutes

*** tstart() called on c1-9.compute.lan
*** at Tue Feb  2 11:29:33 2021


         ------------------------------------------------------------
                                   SCF GRAD                          
                          Rob Parrish, Justin Turney,                
                       Andy Simmonett, and Alex Sokolov              
         ------------------------------------------------------------

  ==> Geometry <==

    Molecular point group: d2h
    Full point group: D_inf_h

    Geometry (in Angstrom), charge = -2, multiplicity = 1:

       Center              X                  Y                   Z               Mass       
    ------------   -----------------  -----------------  -----------------  -----------------
         S            0.000000000000     0.000000000000    -1.077685250526    31.972071174400
         S            0.000000000000     0.000000000000     1.077685250526    31.972071174400

  Nuclear repulsion =   62.852008907715721

  ==> Basis Set <==

  Basis Set: AUG-CC-PVTZ
    Blend: AUG-CC-PVTZ
    Number of shells: 32
    Number of basis function: 100
    Number of Cartesian functions: 118
    Spherical Harmonics?: true
    Max angular momentum: 3

  ==> DFJKGrad: Density-Fitted SCF Gradients <==

    Gradient:                    1
    J tasked:                  Yes
    K tasked:                  Yes
    wK tasked:                 Yes
    Omega:               2.000E-01
    OpenMP threads:              1
    Integrals threads:           1
    Memory [MiB]:             7152
    Schwarz Cutoff:          0E+00
    Fitting Condition:       1E-10

   => Auxiliary Basis Set <=

  Basis Set: (AUG-CC-PVTZ AUX)
    Blend: AUG-CC-PVTZ-JKFIT
    Number of shells: 84
    Number of basis function: 292
    Number of Cartesian functions: 360
    Spherical Harmonics?: true
    Max angular momentum: 4

  ==> DFT Potential <==

   => Composite Functional: WB97X-D <= 

    wB97X-D Hyb-GGA Exchange-Correlation Functional

    J.-D. Chai and M. Head-Gordon, Phys. Chem. Chem. Phys. 10, 6615 (2008)

    Deriv               =              1
    GGA                 =           TRUE
    Meta                =          FALSE

    Exchange Hybrid     =           TRUE
    MP2 Hybrid          =          FALSE

   => Exchange-Correlation Functionals <=

    1.0000   wB97D range-separated functional

   => Exact (HF) Exchange <=

    0.7780            HF,LR [omega = 0.2000]
    0.2220               HF 

   => Molecular Quadrature <=

    Radial Scheme          =       TREUTLER
    Pruning Scheme         =           NONE
    Nuclear Scheme         =       TREUTLER

    BS radius alpha        =              1
    Pruning alpha          =              1
    Radial Points          =             99
    Spherical Points       =            590
    Total Points           =         113428
    Total Blocks           =            980
    Max Points             =            256
    Max Functions          =            100
    Weights Tolerance      =       1.00E-15


  -Total Gradient:
[...]
    Algorithm:                Core
    Integral Cache:           NONE
    Schwarz Cutoff:          1E-12
    Fitting Condition:       1E-10

   => Auxiliary Basis Set <=

  Basis Set: (AUG-CC-PVTZ AUX)
    Blend: AUG-CC-PVTZ-JKFIT
    Number of shells: 84
    Number of basis function: 292
    Number of Cartesian functions: 360
    Spherical Harmonics?: true
    Max angular momentum: 4

  Cached 100.0% of DFT collocation blocks in 0.302 [GiB].

  Minimum eigenvalue in the overlap matrix is 3.9125882254E-04.
  Using Symmetric Orthogonalization.

  SCF Guess: Superposition of Atomic Densities via on-the-fly atomic UHF.

  ==> Iterations <==

                           Total Energy        Delta E     RMS |[F,P]|

   @DF-UKS iter SAD:  -795.74952084412644   -7.95750e+02   0.00000e+00 
    Occupation by irrep:
             Ag   B1g   B2g   B3g    Au   B1u   B2u   B3u 
    DOCC [     5,    0,    2,    1,    0,    5,    2,    2 ]
    SOCC [     0,    0,    0,    0,    0,    0,    0,    0 ]

   @DF-UKS iter   1:  -796.08282014326733   -3.33299e-01   1.44260e-02 DIIS
    Occupation by irrep:
             Ag   B1g   B2g   B3g    Au   B1u   B2u   B3u 
    DOCC [     5,    0,    2,    2,    0,    4,    2,    2 ]
    SOCC [     0,    0,    0,    0,    0,    0,    0,    0 ]

   @DF-UKS iter   2:  -795.55402973087075    5.28790e-01   2.21741e-02 DIIS
   @DF-UKS iter   3:  -796.27907916825120   -7.25049e-01   4.63532e-03 DIIS
   @DF-UKS iter   4:  -796.31333123665718   -3.42521e-02   1.13269e-03 DIIS
   @DF-UKS iter   5:  -796.31680683033665   -3.47559e-03   3.79009e-04 DIIS
   @DF-UKS iter   6:  -796.31713637339499   -3.29543e-04   1.48227e-04 DIIS
   @DF-UKS iter   7:  -796.31719596264884   -5.95893e-05   5.59229e-05 DIIS
   @DF-UKS iter   8:  -796.31720197930326   -6.01665e-06   1.37285e-05 DIIS
   @DF-UKS iter   9:  -796.31720264910098   -6.69798e-07   2.19993e-06 DIIS
   @DF-UKS iter  10:  -796.31720268957827   -4.04773e-08   6.45854e-07 DIIS
   @DF-UKS iter  11:  -796.31720269259995   -3.02168e-09   8.26825e-08 DIIS
   @DF-UKS iter  12:  -796.31720269264179   -4.18368e-11   1.61269e-08 DIIS
   @DF-UKS iter  13:  -796.31720269264395   -2.16005e-12   1.96491e-09 DIIS
  Energy and wave function converged.


  ==> Post-Iterations <==

   @Spin Contamination Metric:  -2.842170943E-14
   @S^2 Expected:                0.000000000E+00
   @S^2 Observed:               -2.842170943E-14
   @S   Expected:                0.000000000E+00
   @S   Observed:                0.000000000E+00

    Orbital Energies [Eh]
    ---------------------

    Alpha Occupied:                                                       

       1B1u  -88.638115     1Ag   -88.638107     2Ag    -7.642915  
       2B1u   -7.642878     3Ag    -5.593981     3B1u   -5.593826  
       1B3u   -5.586020     1B2u   -5.586020     1B2g   -5.586013  
       1B3g   -5.586013     4Ag    -0.411557     4B1u   -0.269934  
       5Ag    -0.005343     2B3u    0.027791     2B2u    0.027791  
       2B3g    0.123810     2B2g    0.123810  

    Alpha Virtual:                                                        

       5B1u    0.278443     6Ag     0.343285     3B2u    0.362216  
       3B3u    0.362216     3B2g    0.367985     3B3g    0.367985  
       7Ag     0.415543     6B1u    0.419741     7B1u    0.505684  
       1B1g    0.557779     8Ag     0.557779     4B2u    0.604567  
       4B3u    0.604567     9Ag     0.636046     1Au     0.639702  
       8B1u    0.639702     9B1u    0.678331     4B3g    0.693181  
       4B2g    0.693181     5B3u    0.844559     5B2u    0.844559  
      10B1u    0.926534     5B3g    0.940646     5B2g    0.940646  
      10Ag     0.947117     6B2u    0.958329     6B3u    0.958329  
      11Ag     0.981447     2B1g    1.004370    12Ag     1.004371  
      13Ag     1.038935     2Au     1.072839    11B1u    1.072839  
       7B2u    1.116773     7B3u    1.116773     6B3g    1.127750  
       6B2g    1.127750     3B1g    1.160911    14Ag     1.160911  
      12B1u    1.205218     7B3g    1.239876     7B2g    1.239876  
       8B2u    1.381749     8B3u    1.381749    13B1u    1.398548  
       3Au     1.419920    14B1u    1.419920     8B3g    1.592907  
       8B2g    1.592907    15Ag     1.632419    15B1u    1.850617  
      16Ag     2.226702     4B1g    2.226704     9B3u    2.277742  
       9B2u    2.277742    16B1u    2.292649     4Au     2.292651  
      17B1u    2.309031     9B2g    2.428848     9B3g    2.428848  
      17Ag     2.435929    10B2u    2.471383    10B3u    2.471383  
      11B3u    2.527153    11B2u    2.527153    18Ag     2.540643  
       5B1g    2.544267    19Ag     2.544272    12B3u    2.564670  
      12B2u    2.564670    10B2g    2.610416    10B3g    2.610416  
      11B3g    2.668970    11B2g    2.668970     5Au     2.695264  
      18B1u    2.695270    20Ag     2.714399    19B1u    2.787626  
      12B3g    2.942993    12B2g    2.942993    20B1u    3.922196  
      21Ag     4.696909    21B1u    5.697905  

    Beta Occupied:                                                        

       1B1u  -88.638115     1Ag   -88.638107     2Ag    -7.642915  
       2B1u   -7.642878     3Ag    -5.593981     3B1u   -5.593826  
       1B3u   -5.586020     1B2u   -5.586020     1B2g   -5.586013  
       1B3g   -5.586013     4Ag    -0.411557     4B1u   -0.269934  
       5Ag    -0.005343     2B3u    0.027791     2B2u    0.027791  
       2B3g    0.123810     2B2g    0.123810  

    Beta Virtual:                                                         

       5B1u    0.278443     6Ag     0.343285     3B2u    0.362216  
       3B3u    0.362216     3B2g    0.367985     3B3g    0.367985  
       7Ag     0.415543     6B1u    0.419741     7B1u    0.505684  
       1B1g    0.557779     8Ag     0.557779     4B2u    0.604567  
       4B3u    0.604567     9Ag     0.636046     1Au     0.639702  
       8B1u    0.639702     9B1u    0.678331     4B3g    0.693181  
       4B2g    0.693181     5B3u    0.844559     5B2u    0.844559  
      10B1u    0.926534     5B3g    0.940646     5B2g    0.940646  
      10Ag     0.947117     6B2u    0.958329     6B3u    0.958329  
      11Ag     0.981447     2B1g    1.004370    12Ag     1.004371  
      13Ag     1.038935     2Au     1.072839    11B1u    1.072839  
       7B2u    1.116773     7B3u    1.116773     6B3g    1.127750  
       6B2g    1.127750     3B1g    1.160911    14Ag     1.160911  
      12B1u    1.205218     7B3g    1.239876     7B2g    1.239876  
       8B2u    1.381749     8B3u    1.381749    13B1u    1.398548  
       3Au     1.419920    14B1u    1.419920     8B3g    1.592907  
       8B2g    1.592907    15Ag     1.632419    15B1u    1.850617  
      16Ag     2.226702     4B1g    2.226704     9B3u    2.277742  
       9B2u    2.277742    16B1u    2.292649     4Au     2.292651  
      17B1u    2.309031     9B2g    2.428848     9B3g    2.428848  
      17Ag     2.435929    10B2u    2.471383    10B3u    2.471383  
      11B3u    2.527153    11B2u    2.527153    18Ag     2.540643  
       5B1g    2.544267    19Ag     2.544272    12B3u    2.564670  
      12B2u    2.564670    10B2g    2.610416    10B3g    2.610416  
      11B3g    2.668970    11B2g    2.668970     5Au     2.695264  
      18B1u    2.695270    20Ag     2.714399    19B1u    2.787626  
      12B3g    2.942993    12B2g    2.942993    20B1u    3.922196  
      21Ag     4.696909    21B1u    5.697905  

    Final Occupation by Irrep:
             Ag   B1g   B2g   B3g    Au   B1u   B2u   B3u 
    DOCC [     5,    0,    2,    2,    0,    4,    2,    2 ]
    SOCC [     0,    0,    0,    0,    0,    0,    0,    0 ]

  @DF-UKS Final Energy:  -796.31720269264395

   => Energetics <=

    Nuclear Repulsion Energy =             62.6794916681791534
    One-Electron Energy =               -1239.1697770258460878
    Two-Electron Energy =                 417.7982736387757541
    DFT Exchange-Correlation Energy =     -37.6251739497828339
    Empirical Dispersion Energy =          -0.0000170239697686
    VV10 Nonlocal Energy =                  0.0000000000000000
    Total Energy =                       -796.3172026926437184

  UHF NO Occupations:
  HONO-2 :    3B1u 2.0000000
  HONO-1 :    4B1u 2.0000000
  HONO-0 :    5 Ag 2.0000000
  LUNO+0 :    5B1u 0.0000000
  LUNO+1 :    3B2g 0.0000000
  LUNO+2 :    6 Ag 0.0000000
  LUNO+3 :    6B1u 0.0000000


Computation Completed


Properties will be evaluated at   0.000000,   0.000000,   0.000000 [a0]

Properties computed using the SCF density matrix

  Nuclear Dipole Moment: [e a0]
     X:     0.0000      Y:     0.0000      Z:     0.0000

  Electronic Dipole Moment: [e a0]
     X:     0.0000      Y:     0.0000      Z:     0.0000

  Dipole Moment: [e a0]
     X:     0.0000      Y:     0.0000      Z:     0.0000     Total:     0.0000

  Dipole Moment: [D]
     X:     0.0000      Y:     0.0000      Z:     0.0000     Total:     0.0000


*** tstop() called on c1-9.compute.lan at Tue Feb  2 11:31:13 2021
Module time:
	user time   =      11.99 seconds =       0.20 minutes
	system time =       0.11 seconds =       0.00 minutes
	total time  =         12 seconds =       0.20 minutes
Total time:
	user time   =     149.78 seconds =       2.50 minutes
	system time =       1.69 seconds =       0.03 minutes
	total time  =        152 seconds =       2.53 minutes

*** tstart() called on c1-9.compute.lan
*** at Tue Feb  2 11:31:13 2021


         ------------------------------------------------------------
                                   SCF GRAD                          
                          Rob Parrish, Justin Turney,                
                       Andy Simmonett, and Alex Sokolov              
         ------------------------------------------------------------

  ==> Geometry <==

    Molecular point group: d2h
    Full point group: D_inf_h

    Geometry (in Angstrom), charge = -2, multiplicity = 1:

       Center              X                  Y                   Z               Mass       
    ------------   -----------------  -----------------  -----------------  -----------------
         S            0.000000000000     0.000000000000    -1.080651440576    31.972071174400
         S            0.000000000000     0.000000000000     1.080651440576    31.972071174400

  Nuclear repulsion =   62.679491668179153

  ==> Basis Set <==

  Basis Set: AUG-CC-PVTZ
    Blend: AUG-CC-PVTZ
    Number of shells: 32
    Number of basis function: 100
    Number of Cartesian functions: 118
    Spherical Harmonics?: true
    Max angular momentum: 3

  ==> DFJKGrad: Density-Fitted SCF Gradients <==

    Gradient:                    1
    J tasked:                  Yes
    K tasked:                  Yes
    wK tasked:                 Yes
    Omega:               2.000E-01
    OpenMP threads:              1
    Integrals threads:           1
    Memory [MiB]:             7152
    Schwarz Cutoff:          0E+00
    Fitting Condition:       1E-10

   => Auxiliary Basis Set <=

  Basis Set: (AUG-CC-PVTZ AUX)
    Blend: AUG-CC-PVTZ-JKFIT
    Number of shells: 84
    Number of basis function: 292
    Number of Cartesian functions: 360
    Spherical Harmonics?: true
    Max angular momentum: 4

  ==> DFT Potential <==

   => Composite Functional: WB97X-D <= 

    wB97X-D Hyb-GGA Exchange-Correlation Functional

    J.-D. Chai and M. Head-Gordon, Phys. Chem. Chem. Phys. 10, 6615 (2008)

    Deriv               =              1
    GGA                 =           TRUE
    Meta                =          FALSE

    Exchange Hybrid     =           TRUE
    MP2 Hybrid          =          FALSE

   => Exchange-Correlation Functionals <=

    1.0000   wB97D range-separated functional

   => Exact (HF) Exchange <=

    0.7780            HF,LR [omega = 0.2000]
    0.2220               HF 

   => Molecular Quadrature <=

    Radial Scheme          =       TREUTLER
    Pruning Scheme         =           NONE
    Nuclear Scheme         =       TREUTLER

    BS radius alpha        =              1
    Pruning alpha          =              1
    Radial Points          =             99
    Spherical Points       =            590
    Total Points           =         113420
    Total Blocks           =            980
    Max Points             =            256
    Max Functions          =            100
    Weights Tolerance      =       1.00E-15


  -Total Gradient:
     Atom            X                  Y                   Z
    ------   -----------------  -----------------  -----------------
       1       -0.000000000000     0.000000000000     0.000149345195
       2        0.000000000000     0.000000000000    -0.000149345195


*** tstop() called on c1-9.compute.lan at Tue Feb  2 11:31:17 2021
Module time:
	user time   =       4.10 seconds =       0.07 minutes
	system time =       0.04 seconds =       0.00 minutes
	total time  =          4 seconds =       0.07 minutes
Total time:
	user time   =     153.88 seconds =       2.56 minutes
	system time =       1.73 seconds =       0.03 minutes
	total time  =        156 seconds =       2.60 minutes

         ----------------------------------------------------------
                                   FINDIF
                     R. A. King and Jonathon Misiewicz
         ---------------------------------------------------------

  Computing second-derivative from gradients using projected, 
  symmetry-adapted, cartesian coordinates.

  3 gradients passed in, including the reference geometry.
  Generating complete list of displacements from unique ones.


-------------------------------------------------------------


  ==> Harmonic Vibrational Analysis <==

  non-mass-weighted Hessian:       Symmetric? True   Hermitian? True   Lin Dep Dim?  5 (0)
  projection of translations (True) and rotations (True) removed 5 degrees of freedom (5)
  total projector:                 Symmetric? True   Hermitian? True   Lin Dep Dim?  5 (5)
  mass-weighted Hessian:           Symmetric? True   Hermitian? True   Lin Dep Dim?  5 (0)
  pre-proj  low-frequency mode:    0.0000  [cm^-1]
  pre-proj  low-frequency mode:    0.0000  [cm^-1]
  pre-proj  low-frequency mode:    0.0000  [cm^-1]
  pre-proj  low-frequency mode:    0.0000  [cm^-1]
  pre-proj  low-frequency mode:    0.0000  [cm^-1]
  pre-proj  all modes:['0.0000' '0.0000' '0.0000' '0.0000' '0.0000' '443.8588']
  projected mass-weighted Hessian: Symmetric? True   Hermitian? True   Lin Dep Dim?  5 (5)
  post-proj low-frequency mode:    0.0000  [cm^-1] (TR)
  post-proj low-frequency mode:    0.0000  [cm^-1] (TR)
  post-proj low-frequency mode:    0.0000  [cm^-1] (TR)
  post-proj low-frequency mode:    0.0000  [cm^-1] (TR)
  post-proj low-frequency mode:    0.0000  [cm^-1] (TR)
  post-proj  all modes:['0.0000' '0.0000' '0.0000' '0.0000' '0.0000' '443.8588']

  Vibration                       6           
  Freq [cm^-1]                 443.8588       
  Irrep                           Ag          
  Reduced mass [u]             31.9721        
  Force const [mDyne/A]         3.7112        
  Turning point v=0 [a0]        0.0921        
  RMS dev v=0 [a0 u^1/2]        0.3683        
  Char temp [K]                638.6139       
  ----------------------------------------------------------------------------------
      1   S                0.00  0.00  0.71   
      2   S                0.00  0.00 -0.71   

  ==> Thermochemistry Components <==

  Entropy, S
    Electronic S            0.000 [cal/(mol K)]        0.000 [J/(mol K)]       0.00000000 [mEh/K] (multiplicity = 1)
    Translational S        38.385 [cal/(mol K)]      160.603 [J/(mol K)]       0.06117054 [mEh/K] (mol. weight = 63.9441 [u], P = 101325.00 [Pa])
    Rotational S           14.168 [cal/(mol K)]       59.279 [J/(mol K)]       0.02257810 [mEh/K] (symmetry no. = 2)
    Vibrational S           0.815 [cal/(mol K)]        3.408 [J/(mol K)]       0.00129809 [mEh/K]
  Total S                  53.368 [cal/(mol K)]      223.290 [J/(mol K)]       0.08504673 [mEh/K]
  Correction S              0.000 [cal/(mol K)]        0.000 [J/(mol K)]       0.00000000 [mEh/K]

  Constant volume heat capacity, Cv
    Electronic Cv           0.000 [cal/(mol K)]        0.000 [J/(mol K)]       0.00000000 [mEh/K]
    Translational Cv        2.981 [cal/(mol K)]       12.472 [J/(mol K)]       0.00475022 [mEh/K]
    Rotational Cv           1.987 [cal/(mol K)]        8.314 [J/(mol K)]       0.00316681 [mEh/K]
    Vibrational Cv          1.374 [cal/(mol K)]        5.751 [J/(mol K)]       0.00219031 [mEh/K]
  Total Cv                  6.342 [cal/(mol K)]       26.537 [J/(mol K)]       0.01010733 [mEh/K]
  Correction Cv             0.000 [cal/(mol K)]        0.000 [J/(mol K)]       0.00000000 [mEh/K]

  Constant pressure heat capacity, Cp
    Electronic Cp           0.000 [cal/(mol K)]        0.000 [J/(mol K)]       0.00000000 [mEh/K]
    Translational Cp        4.968 [cal/(mol K)]       20.786 [J/(mol K)]       0.00791703 [mEh/K]
    Rotational Cp           1.987 [cal/(mol K)]        8.314 [J/(mol K)]       0.00316681 [mEh/K]
    Vibrational Cp          1.374 [cal/(mol K)]        5.751 [J/(mol K)]       0.00219031 [mEh/K]
  Total Cp                  8.330 [cal/(mol K)]       34.851 [J/(mol K)]       0.01327414 [mEh/K]
  Correction Cp             0.000 [cal/(mol K)]        0.000 [J/(mol K)]       0.00000000 [mEh/K]

  ==> Thermochemistry Energy Analysis <==

  Raw electronic energy, E0
  Total E0, Electronic energy at well bottom at 0 [K]                 -796.31720279 [Eh]

  Zero-point energy, ZPE_vib = Sum_i nu_i / 2
    Electronic ZPE          0.000 [kcal/mol]        0.000 [kJ/mol]       0.00000000 [Eh]
    Translational ZPE       0.000 [kcal/mol]        0.000 [kJ/mol]       0.00000000 [Eh]
    Rotational ZPE          0.000 [kcal/mol]        0.000 [kJ/mol]       0.00000000 [Eh]
    Vibrational ZPE         0.635 [kcal/mol]        2.655 [kJ/mol]       0.00101118 [Eh]         221.929 [cm^-1]
  Correction ZPE            0.635 [kcal/mol]        2.655 [kJ/mol]       0.00101118 [Eh]         221.929 [cm^-1]
  Total ZPE, Electronic energy at 0 [K]                               -796.31619161 [Eh]

  Thermal Energy, E (includes ZPE)
    Electronic E            0.000 [kcal/mol]        0.000 [kJ/mol]       0.00000000 [Eh]
    Translational E         0.889 [kcal/mol]        3.718 [kJ/mol]       0.00141628 [Eh]
    Rotational E            0.592 [kcal/mol]        2.479 [kJ/mol]       0.00094418 [Eh]
    Vibrational E           0.803 [kcal/mol]        3.361 [kJ/mol]       0.00128027 [Eh]
  Correction E              2.285 [kcal/mol]        9.559 [kJ/mol]       0.00364073 [Eh]
  Total E, Electronic energy at  298.15 [K]                           -796.31356206 [Eh]

  Enthalpy, H_trans = E_trans + k_B * T
    Electronic H            0.000 [kcal/mol]        0.000 [kJ/mol]       0.00000000 [Eh]
    Translational H         1.481 [kcal/mol]        6.197 [kJ/mol]       0.00236046 [Eh]
    Rotational H            0.592 [kcal/mol]        2.479 [kJ/mol]       0.00094418 [Eh]
    Vibrational H           0.803 [kcal/mol]        3.361 [kJ/mol]       0.00128027 [Eh]
  Correction H              2.877 [kcal/mol]       12.038 [kJ/mol]       0.00458491 [Eh]
  Total H, Enthalpy at  298.15 [K]                                    -796.31261788 [Eh]

  Gibbs free energy, G = H - T * S
    Electronic G            0.000 [kcal/mol]        0.000 [kJ/mol]       0.00000000 [Eh]
    Translational G        -9.963 [kcal/mol]      -41.686 [kJ/mol]      -0.01587754 [Eh]
    Rotational G           -3.632 [kcal/mol]      -15.195 [kJ/mol]      -0.00578748 [Eh]
    Vibrational G           0.561 [kcal/mol]        2.345 [kJ/mol]       0.00089324 [Eh]
  Correction G            -13.034 [kcal/mol]      -54.536 [kJ/mol]      -0.02077177 [Eh]
  Total G, Free enthalpy at  298.15 [K]                               -796.33797456 [Eh]

    Psi4 stopped on: Tuesday, 02 February 2021 11:31AM
    Psi4 wall time for execution: 0:02:36.00

*** Psi4 exiting successfully. Buy a developer a beer!
