
    -----------------------------------------------------------------------
          Psi4: An Open-Source Ab Initio Electronic Structure Package
                               Psi4 1.4a2.dev191 

                         Git: Rev {master} 0ab5346 


    R. M. Parrish, L. A. Burns, D. G. A. Smith, A. C. Simmonett,
    A. E. DePrince III, E. G. Hohenstein, U. Bozkaya, A. Yu. Sokolov,
    R. Di Remigio, R. M. Richard, J. F. Gonthier, A. M. James,
    H. R. McAlexander, A. Kumar, M. Saitow, X. Wang, B. P. Pritchard,
    P. Verma, H. F. Schaefer III, K. Patkowski, R. A. King, E. F. Valeev,
    F. A. Evangelista, J. M. Turney, T. D. Crawford, and C. D. Sherrill,
    J. Chem. Theory Comput. 13(7) pp 3185--3197 (2017).
    (doi: 10.1021/acs.jctc.7b00174)


                         Additional Contributions by
    P. Kraus, H. Kruse, M. H. Lechner, M. C. Schieber, R. A. Shaw,
    A. Alenaizan, R. Galvelis, Z. L. Glick, S. Lehtola, and J. P. Misiewicz

    -----------------------------------------------------------------------


    Psi4 started on: Tuesday, 02 February 2021 12:10PM

    Process ID: 67691
    Host:       c4-11.compute.lan
    PSIDATADIR: /apps/gb/PSI4/1.4.0/share/psi4
    Memory:     500.0 MiB
    Threads:    1
    
  ==> Input File <==

--------------------------------------------------------------------------
memory 10 GB

molecule  {
-1 4
S
S 1 r1
r1 = 2.0
}

set {
reference uks
basis aug-cc-pvtz
g_convergence gau_verytight
dft_spherical_points 590
dft_radial_points 99
}

optimize('wb97x-d')
frequencies('wb97x-d')

--------------------------------------------------------------------------

  Memory set to   9.313 GiB by Python driver.
gradient() will perform analytic gradient computation.

*** tstart() called on c4-11.compute.lan
*** at Tue Feb  2 12:10:28 2021

   => Loading Basis Set <=

    Name: AUG-CC-PVTZ
    Role: ORBITAL
    Keyword: BASIS
    atoms 1-2 entry S          line   906 file /apps/gb/PSI4/1.4.0/share/psi4/basis/aug-cc-pvtz.gbs 

   => WB97X-D: Empirical Dispersion <=

    Chai and Head-Gordon Dispersion Correction
    Chai, J.-D.; Head-Gordon, M. (2010), J. Chem. Phys., 132: 6615-6620

        s6 =       1.000000


         ---------------------------------------------------------
                                   SCF
               by Justin Turney, Rob Parrish, Andy Simmonett
                          and Daniel G. A. Smith
                              UKS Reference
                        1 Threads,   9536 MiB Core
         ---------------------------------------------------------

  ==> Geometry <==

    Molecular point group: d2h
    Full point group: D_inf_h

    Geometry (in Angstrom), charge = -1, multiplicity = 4:

       Center              X                  Y                   Z               Mass       
    ------------   -----------------  -----------------  -----------------  -----------------
         S            0.000000000000     0.000000000000    -1.000000000000    31.972071174400
         S            0.000000000000     0.000000000000     1.000000000000    31.972071174400

  Running in d2h symmetry.

  Rotational constants: A = ************  B =      0.26363  C =      0.26363 [cm^-1]
  Rotational constants: A = ************  B =   7903.44495  C =   7903.44495 [MHz]
  Nuclear repulsion =   67.734682965759930

  Charge       = -1
  Multiplicity = 4
  Electrons    = 33
  Nalpha       = 18
  Nbeta        = 15

  ==> Algorithm <==

  SCF Algorithm Type is DF.
  DIIS enabled.
  MOM disabled.
  Fractional occupation disabled.
  Guess Type is SAD.
  Energy threshold   = 1.00e-08
  Density threshold  = 1.00e-08
  Integral threshold = 0.00e+00

  ==> Primary Basis <==

  Basis Set: AUG-CC-PVTZ
    Blend: AUG-CC-PVTZ
    Number of shells: 32
    Number of basis function: 100
    Number of Cartesian functions: 118
    Spherical Harmonics?: true
    Max angular momentum: 3

  ==> DFT Potential <==

   => Composite Functional: WB97X-D <= 

    wB97X-D Hyb-GGA Exchange-Correlation Functional

    J.-D. Chai and M. Head-Gordon, Phys. Chem. Chem. Phys. 10, 6615 (2008)

    Deriv               =              1
    GGA                 =           TRUE
    Meta                =          FALSE

    Exchange Hybrid     =           TRUE
    MP2 Hybrid          =          FALSE

   => Exchange-Correlation Functionals <=

    1.0000   wB97D range-separated functional

   => Exact (HF) Exchange <=

    0.7780            HF,LR [omega = 0.2000]
    0.2220               HF 

   => Molecular Quadrature <=

    Radial Scheme          =       TREUTLER
    Pruning Scheme         =           NONE
    Nuclear Scheme         =       TREUTLER

    BS radius alpha        =              1
    Pruning alpha          =              1
    Radial Points          =             99
    Spherical Points       =            590
    Total Points           =         113384
    Total Blocks           =            986
    Max Points             =            255
    Max Functions          =            100
    Weights Tolerance      =       1.00E-15

   => Loading Basis Set <=

    Name: (AUG-CC-PVTZ AUX)
    Role: JKFIT
    Keyword: DF_BASIS_SCF
    atoms 1-2 entry S          line   730 file /apps/gb/PSI4/1.4.0/share/psi4/basis/aug-cc-pvtz-jkfit.gbs 

  ==> Pre-Iterations <==

   -------------------------------------------------------
    Irrep   Nso     Nmo     Nalpha   Nbeta   Ndocc  Nsocc
   -------------------------------------------------------
     Ag        21      21       0       0       0       0
     B1g        5       5       0       0       0       0
     B2g       12      12       0       0       0       0
     B3g       12      12       0       0       0       0
     Au         5       5       0       0       0       0
     B1u       21      21       0       0       0       0
     B2u       12      12       0       0       0       0
     B3u       12      12       0       0       0       0
   -------------------------------------------------------
    Total     100     100      18      15      15       3
   -------------------------------------------------------

  ==> Integral Setup <==

  ==> DiskDFJK: Density-Fitted J/K Matrices <==

    J tasked:                  Yes
    K tasked:                  Yes
    wK tasked:                 Yes
    Omega:               2.000E-01
    OpenMP threads:              1
    Integrals threads:           1
    Memory [MiB]:             6842
    Algorithm:                Core
    Integral Cache:           NONE
    Schwarz Cutoff:          1E-12
    Fitting Condition:       1E-10

   => Auxiliary Basis Set <=

  Basis Set: (AUG-CC-PVTZ AUX)
    Blend: AUG-CC-PVTZ-JKFIT
    Number of shells: 84
    Number of basis function: 292
    Number of Cartesian functions: 360
    Spherical Harmonics?: true
    Max angular momentum: 4

  Cached 100.0% of DFT collocation blocks in 0.303 [GiB].

  Minimum eigenvalue in the overlap matrix is 2.7190206739E-04.
  Using Symmetric Orthogonalization.

  SCF Guess: Superposition of Atomic Densities via on-the-fly atomic UHF.

  ==> Iterations <==

                           Total Energy        Delta E     RMS |[F,P]|

   @DF-UKS iter SAD:  -795.91936976565626   -7.95919e+02   0.00000e+00 
   @DF-UKS iter   1:  -796.25767354893219   -3.38304e-01   1.02047e-02 DIIS
   @DF-UKS iter   2:  -796.31192410534095   -5.42506e-02   8.02817e-03 DIIS
   @DF-UKS iter   3:  -796.35773065750436   -4.58066e-02   8.45719e-04 DIIS
   @DF-UKS iter   4:  -796.35920643246345   -1.47577e-03   4.66887e-04 DIIS
   @DF-UKS iter   5:  -796.36002614940753   -8.19717e-04   1.83699e-04 DIIS
   @DF-UKS iter   6:  -796.36034562939722   -3.19480e-04   8.92059e-05 DIIS
   @DF-UKS iter   7:  -796.36045108767621   -1.05458e-04   3.06060e-05 DIIS
   @DF-UKS iter   8:  -796.36046189186118   -1.08042e-05   5.72688e-06 DIIS
   @DF-UKS iter   9:  -796.36046233708680   -4.45226e-07   1.83683e-06 DIIS
   @DF-UKS iter  10:  -796.36046236823586   -3.11491e-08   2.83071e-07 DIIS
   @DF-UKS iter  11:  -796.36046236876950   -5.33646e-10   5.48982e-08 DIIS
   @DF-UKS iter  12:  -796.36046236877974   -1.02318e-11   8.25364e-09 DIIS
  Energy and wave function converged.


  ==> Post-Iterations <==

   @Spin Contamination Metric:   1.320215297E-02
   @S^2 Expected:                3.750000000E+00
   @S^2 Observed:                3.763202153E+00
   @S   Expected:                1.500000000E+00
   @S   Observed:                1.500000000E+00

    Orbital Energies [Eh]
    ---------------------

    Alpha Occupied:                                                       

       1B1u  -88.912783     1Ag   -88.912775     2Ag    -7.919103  
       2B1u   -7.919015     1B2u   -5.866631     1B3u   -5.866631  
       1B3g   -5.866616     1B2g   -5.866616     3Ag    -5.865832  
       3B1u   -5.865430     4Ag    -0.726301     4B1u   -0.553616  
       5Ag    -0.292595     2B2u   -0.268415     2B3u   -0.268415  
       2B3g   -0.150743     2B2g   -0.150743     5B1u    0.031197  

    Alpha Virtual:                                                        

       6Ag     0.187799     6B1u    0.200232     3B2u    0.213589  
       3B3u    0.213589     3B3g    0.227413     3B2g    0.227413  
       7Ag     0.239363     7B1u    0.341000     8Ag     0.348952  
       1B1g    0.348952     4B3u    0.397438     4B2u    0.397438  
       9Ag     0.429788     8B1u    0.450738     1Au     0.450738  
       9B1u    0.506943     4B2g    0.510838     4B3g    0.510838  
       5B3u    0.612955     5B2u    0.612955    10B1u    0.717374  
       6B3u    0.717802     6B2u    0.717802    10Ag     0.727572  
       5B2g    0.729983     5B3g    0.729983    11Ag     0.737127  
      12Ag     0.741283     2B1g    0.741284    13Ag     0.817865  
      11B1u    0.818688     2Au     0.818689     7B3u    0.873674  
       7B2u    0.873674     6B2g    0.901151     6B3g    0.901151  
      14Ag     0.940467     3B1g    0.940467    12B1u    1.010269  
       7B3g    1.015535     7B2g    1.015535     8B3u    1.181006  
       8B2u    1.181006    13B1u    1.214985     3Au     1.214985  
      14B1u    1.223386     8B2g    1.382198     8B3g    1.382198  
      15Ag     1.450938    15B1u    1.612761     4B1g    1.946658  
      16Ag     1.946663    16B1u    2.012395     9B3u    2.017544  
       9B2u    2.017544     4Au     2.019625    17B1u    2.019631  
      17Ag     2.136064     9B3g    2.139325     9B2g    2.139325  
      10B2u    2.197163    10B3u    2.197163     5B1g    2.232754  
      18Ag     2.232754    19Ag     2.241479    11B3u    2.246596  
      11B2u    2.246596    12B2u    2.273904    12B3u    2.273904  
      10B3g    2.334852    10B2g    2.334852    18B1u    2.472266  
       5Au     2.472267    11B3g    2.477042    11B2g    2.477042  
      19B1u    2.597078    20Ag     2.690761    12B2g    2.783162  
      12B3g    2.783162    20B1u    3.837555    21Ag     4.633927  
      21B1u    5.458747  

    Beta Occupied:                                                        

       1B1u  -88.905599     1Ag   -88.905593     2Ag    -7.911635  
       2B1u   -7.911499     3Ag    -5.858871     3B1u   -5.858459  
       1B2u   -5.853592     1B3u   -5.853592     1B3g   -5.853559  
       1B2g   -5.853559     4Ag    -0.683107     4B1u   -0.480457  
       5Ag    -0.253747     2B2u   -0.204509     2B3u   -0.204509  

    Beta Virtual:                                                         

       2B3g    0.103143     2B2g    0.103143     5B1u    0.222948  
       6Ag     0.237353     3B3u    0.242649     3B2u    0.242649  
       3B3g    0.302845     3B2g    0.302845     7Ag     0.304838  
       6B1u    0.310707     8Ag     0.354997     1B1g    0.354997  
       7B1u    0.397687     4B3u    0.413645     4B2u    0.413645  
       1Au     0.460768     8B1u    0.460768     9Ag     0.470853  
       9B1u    0.529558     4B2g    0.531389     4B3g    0.531389  
       5B3u    0.634297     5B2u    0.634297    10Ag     0.734846  
       6B3u    0.737733     6B2u    0.737733     5B2g    0.747563  
       5B3g    0.747563    10B1u    0.750109    11Ag     0.757909  
      12Ag     0.768378     2B1g    0.768378    13Ag     0.846608  
      11B1u    0.860393     2Au     0.860393     7B3u    0.878333  
       7B2u    0.878333     6B2g    0.932756     6B3g    0.932756  
       3B1g    0.951128    14Ag     0.951128     7B3g    1.022500  
       7B2g    1.022500    12B1u    1.040523     8B3u    1.190251  
       8B2u    1.190251    13B1u    1.221824     3Au     1.221825  
      14B1u    1.233820     8B2g    1.402697     8B3g    1.402697  
      15Ag     1.475515    15B1u    1.649624     4B1g    1.979590  
      16Ag     1.979594    16B1u    2.029468     9B3u    2.037750  
       9B2u    2.037750     4Au     2.051232    17B1u    2.051236  
      17Ag     2.146350     9B3g    2.166048     9B2g    2.166048  
      10B2u    2.222301    10B3u    2.222301     5B1g    2.261735  
      18Ag     2.261736    19Ag     2.264622    11B3u    2.285750  
      11B2u    2.285750    12B2u    2.319151    12B3u    2.319151  
      10B3g    2.379604    10B2g    2.379604     5Au     2.505337  
      18B1u    2.505337    11B3g    2.509180    11B2g    2.509180  
      19B1u    2.623055    20Ag     2.711627    12B2g    2.814575  
      12B3g    2.814575    20B1u    3.858186    21Ag     4.655864  
      21B1u    5.481218  

    Final Occupation by Irrep:
             Ag   B1g   B2g   B3g    Au   B1u   B2u   B3u 
    DOCC [     5,    0,    1,    1,    0,    4,    2,    2 ]
    SOCC [     0,    0,    1,    1,    0,    1,    0,    0 ]

  @DF-UKS Final Energy:  -796.36046236877974

   => Energetics <=

    Nuclear Repulsion Energy =             67.7346829657599301
    One-Electron Energy =               -1240.5391391685843701
    Two-Electron Energy =                 413.9697516531707606
    DFT Exchange-Correlation Energy =     -37.5257471245827077
    Empirical Dispersion Energy =          -0.0000106945433699
    VV10 Nonlocal Energy =                  0.0000000000000000
    Total Energy =                       -796.3604623687797357

  UHF NO Occupations:
  HONO-2 :    2B3g 1.0000000
  HONO-1 :    2B2g 1.0000000
  HONO-0 :    5B1u 1.0000000
  LUNO+0 :    3B3u 0.0026621
  LUNO+1 :    3B2u 0.0026621
  LUNO+2 :    6 Ag 0.0005779
  LUNO+3 :    6B1u 0.0004427


Computation Completed


Properties will be evaluated at   0.000000,   0.000000,   0.000000 [a0]

Properties computed using the SCF density matrix

  Nuclear Dipole Moment: [e a0]
     X:     0.0000      Y:     0.0000      Z:     0.0000

  Electronic Dipole Moment: [e a0]
     X:     0.0000      Y:     0.0000      Z:     0.0000

  Dipole Moment: [e a0]
     X:     0.0000      Y:     0.0000      Z:     0.0000     Total:     0.0000

  Dipole Moment: [D]
     X:     0.0000      Y:     0.0000      Z:     0.0000     Total:     0.0000


*** tstop() called on c4-11.compute.lan at Tue Feb  2 12:10:40 2021
Module time:
	user time   =      11.67 seconds =       0.19 minutes
	system time =       0.39 seconds =       0.01 minutes
	total time  =         12 seconds =       0.20 minutes
Total time:
	user time   =      11.67 seconds =       0.19 minutes
	system time =       0.39 seconds =       0.01 minutes
	total time  =         12 seconds =       0.20 minutes

*** tstart() called on c4-11.compute.lan
*** at Tue Feb  2 12:10:40 2021


         ------------------------------------------------------------
                                   SCF GRAD                          
                          Rob Parrish, Justin Turney,                
                       Andy Simmonett, and Alex Sokolov              
         ------------------------------------------------------------

  ==> Geometry <==

    Molecular point group: d2h
    Full point group: D_inf_h

    Geometry (in Angstrom), charge = -1, multiplicity = 4:

       Center              X                  Y                   Z               Mass       
    ------------   -----------------  -----------------  -----------------  -----------------
         S            0.000000000000     0.000000000000    -1.000000000000    31.972071174400
         S            0.000000000000     0.000000000000     1.000000000000    31.972071174400

  Nuclear repulsion =   67.734682965759930

  ==> Basis Set <==

  Basis Set: AUG-CC-PVTZ
    Blend: AUG-CC-PVTZ
    Number of shells: 32
    Number of basis function: 100
    Number of Cartesian functions: 118
    Spherical Harmonics?: true
    Max angular momentum: 3

  ==> DFJKGrad: Density-Fitted SCF Gradients <==

    Gradient:                    1
    J tasked:                  Yes
    K tasked:                  Yes
    wK tasked:                 Yes
    Omega:               2.000E-01
    OpenMP threads:              1
    Integrals threads:           1
    Memory [MiB]:             7152
    Schwarz Cutoff:          0E+00
    Fitting Condition:       1E-10

   => Auxiliary Basis Set <=

  Basis Set: (AUG-CC-PVTZ AUX)
    Blend: AUG-CC-PVTZ-JKFIT
    Number of shells: 84
    Number of basis function: 292
    Number of Cartesian functions: 360
    Spherical Harmonics?: true
    Max angular momentum: 4

  ==> DFT Potential <==

   => Composite Functional: WB97X-D <= 

    wB97X-D Hyb-GGA Exchange-Correlation Functional

    J.-D. Chai and M. Head-Gordon, Phys. Chem. Chem. Phys. 10, 6615 (2008)

    Deriv               =              1
    GGA                 =           TRUE
    Meta                =          FALSE

    Exchange Hybrid     =           TRUE
    MP2 Hybrid          =          FALSE

   => Exchange-Correlation Functionals <=

    1.0000   wB97D range-separated functional

   => Exact (HF) Exchange <=

    0.7780            HF,LR [omega = 0.2000]
    0.2220               HF 

   => Molecular Quadrature <=

    Radial Scheme          =       TREUTLER
    Pruning Scheme         =           NONE
    Nuclear Scheme         =       TREUTLER

    BS radius alpha        =              1
    Pruning alpha          =              1
    Radial Points          =             99
    Spherical Points       =            590
    Total Points           =         113384
    Total Blocks           =            986
    Max Points             =            255
    Max Functions          =            100
    Weights Tolerance      =       1.00E-15


  -Total Gradient:
     Atom            X                  Y                   Z
    ------   -----------------  -----------------  -----------------
       1        0.000000000000     0.000000000000     0.025330934237
       2        0.000000000000    -0.000000000000    -0.025330934237


*** tstop() called on c4-11.compute.lan at Tue Feb  2 12:10:45 2021
Module time:
	user time   =       4.21 seconds =       0.07 minutes
	system time =       0.05 seconds =       0.00 minutes
	total time  =          5 seconds =       0.08 minutes
Total time:
	user time   =      15.89 seconds =       0.26 minutes
	system time =       0.44 seconds =       0.01 minutes
	total time  =         17 seconds =       0.28 minutes

			-----------------------------------------
			 OPTKING 2.0: for geometry optimizations 
			  - R.A. King,  Bethel University        
			-----------------------------------------

	Internal coordinates to be generated automatically.
	Detected frag 1 with atoms:  1 2
	---Fragment 1 Bond Connectivity---
	 1 : 2
	 2 : 1

	---Fragment 1 Geometry and Gradient---
	 S           0.0000000000        0.0000000000       -1.8897261255
	 S           0.0000000000        0.0000000000        1.8897261255
	             0.0000000000        0.0000000000        0.0253309342
	             0.0000000000       -0.0000000000       -0.0253309342

	Previous optimization step data not found.  Starting new optimization.

	---Fragment 1 Intrafragment Coordinates---
	 - Coordinate -           - BOHR/RAD -       - ANG/DEG -
	 R(1,2)           =         3.779452	       2.000000

	Current energy   :      -796.3604623688

	Generating empirical Hessian (Schlegel '84) for each fragment.
	Taking RFO optimization step.
	Going to follow RFO solution 1.
	Using RFO vector 1.
	Norm of target step-size    0.07284
	Projected energy change by RFO approximation:         0.0008035912

	Back-transformation to cartesian coordinates...
	Successfully converged to displaced geometry.

	--- Internal Coordinate Step in ANG or DEG, aJ/ANG or AJ/DEG ---
	 ---------------------------------------------------------------------------
	   Coordinate                Previous        Force       Change         New 
	   ----------                --------       ------       ------       ------
	    1 R(1,2)          =      2.000000     0.208695     0.038547     2.038547
	 ---------------------------------------------------------------------------
	Successfully symmetrized geometry.

  ==> Convergence Check <==

  Measures of convergence in internal coordinates in au.
  Criteria marked as inactive (o), active & met (*), and active & unmet ( ).
  --------------------------------------------------------------------------------------------- ~
   Step     Total Energy     Delta E     MAX Force     RMS Force      MAX Disp      RMS Disp    ~
  --------------------------------------------------------------------------------------------- ~
    Convergence Criteria             o    2.00e-06 *    1.00e-06 *    6.00e-06 *    4.00e-06 *  ~
  --------------------------------------------------------------------------------------------- ~
      1    -796.36046237   -7.96e+02 o    2.53e-02      2.53e-02      7.28e-02      7.28e-02    ~
  ---------------------------------------------------------------------------------------------

	Writing optimization data to binary file.
	Structure for next step:
	Cartesian Geometry (in Angstrom)
	    S     0.0000000000   0.0000000000  -1.0192733406
	    S     0.0000000000   0.0000000000   1.0192733406
			--------------------------
			 OPTKING Finished Execution 
			--------------------------

    Structure for next step:
    Molecular point group: d2h
    Full point group: D_inf_h

    Geometry (in Angstrom), charge = -1, multiplicity = 4:

    S       
    S             1          r1

    r1        =    2.0385466891

gradient() will perform analytic gradient computation.

*** tstart() called on c4-11.compute.lan
*** at Tue Feb  2 12:10:45 2021

   => Loading Basis Set <=

    Name: AUG-CC-PVTZ
    Role: ORBITAL
    Keyword: BASIS
    atoms 1-2 entry S          line   906 file /apps/gb/PSI4/1.4.0/share/psi4/basis/aug-cc-pvtz.gbs 

   => WB97X-D: Empirical Dispersion <=

    Chai and Head-Gordon Dispersion Correction
    Chai, J.-D.; Head-Gordon, M. (2010), J. Chem. Phys., 132: 6615-6620

        s6 =       1.000000


         ---------------------------------------------------------
                                   SCF
               by Justin Turney, Rob Parrish, Andy Simmonett
                          and Daniel G. A. Smith
                              UKS Reference
                        1 Threads,   9536 MiB Core
         ---------------------------------------------------------

  ==> Geometry <==

    Molecular point group: d2h
    Full point group: D_inf_h

    Geometry (in Angstrom), charge = -1, multiplicity = 4:

       Center              X                  Y                   Z               Mass       
    ------------   -----------------  -----------------  -----------------  -----------------
         S            0.000000000000     0.000000000000    -1.019273344563    31.972071174400
         S            0.000000000000     0.000000000000     1.019273344563    31.972071174400

  Running in d2h symmetry.

  Rotational constants: A = ************  B =      0.25375  C =      0.25375 [cm^-1]
  Rotational constants: A = ************  B =   7607.37979  C =   7607.37979 [MHz]
  Nuclear repulsion =   66.453894165952690

  Charge       = -1
  Multiplicity = 4
  Electrons    = 33
  Nalpha       = 18
  Nbeta        = 15

  ==> Algorithm <==

  SCF Algorithm Type is DF.
  DIIS enabled.
  MOM disabled.
  Fractional occupation disabled.
  Guess Type is READ.
  Energy threshold   = 1.00e-08
  Density threshold  = 1.00e-08
  Integral threshold = 0.00e+00

  ==> Primary Basis <==

  Basis Set: AUG-CC-PVTZ
    Blend: AUG-CC-PVTZ
    Number of shells: 32
    Number of basis function: 100
    Number of Cartesian functions: 118
    Spherical Harmonics?: true
    Max angular momentum: 3

  ==> DFT Potential <==

   => Composite Functional: WB97X-D <= 

    wB97X-D Hyb-GGA Exchange-Correlation Functional

    J.-D. Chai and M. Head-Gordon, Phys. Chem. Chem. Phys. 10, 6615 (2008)

    Deriv               =              1
    GGA                 =           TRUE
    Meta                =          FALSE

    Exchange Hybrid     =           TRUE
    MP2 Hybrid          =          FALSE

   => Exchange-Correlation Functionals <=

    1.0000   wB97D range-separated functional

   => Exact (HF) Exchange <=

    0.7780            HF,LR [omega = 0.2000]
    0.2220               HF 

   => Molecular Quadrature <=

    Radial Scheme          =       TREUTLER
    Pruning Scheme         =           NONE
    Nuclear Scheme         =       TREUTLER

    BS radius alpha        =              1
    Pruning alpha          =              1
    Radial Points          =             99
    Spherical Points       =            590
    Total Points           =         113394
    Total Blocks           =            978
    Max Points             =            256
    Max Functions          =            100
    Weights Tolerance      =       1.00E-15

   => Loading Basis Set <=

    Name: (AUG-CC-PVTZ AUX)
    Role: JKFIT
    Keyword: DF_BASIS_SCF
    atoms 1-2 entry S          line   730 file /apps/gb/PSI4/1.4.0/share/psi4/basis/aug-cc-pvtz-jkfit.gbs 

   => Loading Basis Set <=

    Name: AUG-CC-PVTZ
    Role: ORBITAL
    Keyword: BASIS
    atoms 1-2 entry S          line   906 file /apps/gb/PSI4/1.4.0/share/psi4/basis/aug-cc-pvtz.gbs 

  Reading orbitals from file 180, no projection.

  ==> Pre-Iterations <==

   -------------------------------------------------------
    Irrep   Nso     Nmo     Nalpha   Nbeta   Ndocc  Nsocc
   -------------------------------------------------------
     Ag        21      21       0       0       0       0
     B1g        5       5       0       0       0       0
     B2g       12      12       0       0       0       0
     B3g       12      12       0       0       0       0
     Au         5       5       0       0       0       0
     B1u       21      21       0       0       0       0
     B2u       12      12       0       0       0       0
     B3u       12      12       0       0       0       0
   -------------------------------------------------------
    Total     100     100      18      15      15       3
   -------------------------------------------------------

  ==> Integral Setup <==

  ==> DiskDFJK: Density-Fitted J/K Matrices <==

    J tasked:                  Yes
    K tasked:                  Yes
    wK tasked:                 Yes
    Omega:               2.000E-01
    OpenMP threads:              1
    Integrals threads:           1
    Memory [MiB]:             6842
    Algorithm:                Core
    Integral Cache:           NONE
    Schwarz Cutoff:          1E-12
    Fitting Condition:       1E-10

   => Auxiliary Basis Set <=

  Basis Set: (AUG-CC-PVTZ AUX)
    Blend: AUG-CC-PVTZ-JKFIT
    Number of shells: 84
    Number of basis function: 292
    Number of Cartesian functions: 360
    Spherical Harmonics?: true
    Max angular momentum: 4

  Cached 100.0% of DFT collocation blocks in 0.302 [GiB].

  Minimum eigenvalue in the overlap matrix is 2.9702006205E-04.
  Using Symmetric Orthogonalization.

  SCF Guess: Orbitals guess was supplied from a previous computation.

  ==> Iterations <==

                           Total Energy        Delta E     RMS |[F,P]|

   @DF-UKS iter   0:  -796.35937482083557   -7.96359e+02   7.83065e-03 
   @DF-UKS iter   1:  -796.36198419700236   -2.60938e-03   2.17143e-04 DIIS
   @DF-UKS iter   2:  -796.36213536719742   -1.51170e-04   8.72802e-05 DIIS
   @DF-UKS iter   3:  -796.36218997726860   -5.46101e-05   5.82827e-05 DIIS
   @DF-UKS iter   4:  -796.36221762141884   -2.76442e-05   2.93210e-05 DIIS
   @DF-UKS iter   5:  -796.36223053011327   -1.29087e-05   1.17664e-05 DIIS
   @DF-UKS iter   6:  -796.36223236258900   -1.83248e-06   2.82837e-06 DIIS
   @DF-UKS iter   7:  -796.36223240158938   -3.90004e-08   1.75804e-06 DIIS
   @DF-UKS iter   8:  -796.36223241119819   -9.60881e-09   2.88564e-07 DIIS
   @DF-UKS iter   9:  -796.36223241159291   -3.94721e-10   4.66944e-08 DIIS
   @DF-UKS iter  10:  -796.36223241160019   -7.27596e-12   7.77814e-09 DIIS
  Energy and wave function converged.


  ==> Post-Iterations <==

   @Spin Contamination Metric:   1.378334784E-02
   @S^2 Expected:                3.750000000E+00
   @S^2 Observed:                3.763783348E+00
   @S   Expected:                1.500000000E+00
   @S   Observed:                1.500000000E+00

    Orbital Energies [Eh]
    ---------------------

    Alpha Occupied:                                                       

       1B1u  -88.900985     1Ag   -88.900977     2Ag    -7.907037  
       2B1u   -7.906971     1B3u   -5.854678     1B2u   -5.854678  
       1B2g   -5.854671     1B3g   -5.854671     3Ag    -5.853764  
       3B1u   -5.853450     4Ag    -0.707189     4B1u   -0.546932  
       5Ag    -0.281443     2B3u   -0.254031     2B2u   -0.254031  
       2B2g   -0.143880     2B3g   -0.143880     5B1u    0.026562  

    Alpha Virtual:                                                        

       6Ag     0.194878     6B1u    0.197416     3B3u    0.217847  
       3B2u    0.217847     3B2g    0.231371     3B3g    0.231371  
       7Ag     0.244480     7B1u    0.343592     8Ag     0.355757  
       1B1g    0.355757     4B2u    0.402791     4B3u    0.402791  
       9Ag     0.437137     8B1u    0.454667     1Au     0.454667  
       9B1u    0.505929     4B3g    0.514775     4B2g    0.514775  
       5B3u    0.621308     5B2u    0.621308    10B1u    0.725610  
       6B3u    0.726925     6B2u    0.726925     5B3g    0.734640  
       5B2g    0.734640    10Ag     0.736894    11Ag     0.747827  
      12Ag     0.752422     2B1g    0.752423    13Ag     0.818081  
      11B1u    0.825602     2Au     0.825602     7B3u    0.882687  
       7B2u    0.882687     6B3g    0.903546     6B2g    0.903546  
      14Ag     0.943499     3B1g    0.943499    12B1u    1.005594  
       7B2g    1.019794     7B3g    1.019794     8B3u    1.181142  
       8B2u    1.181142    13B1u    1.215723    14B1u    1.216178  
       3Au     1.216178     8B3g    1.385287     8B2g    1.385287  
      15Ag     1.445440    15B1u    1.620421     4B1g    1.956203  
      16Ag     1.956207     4Au     2.027595    16B1u    2.027600  
      17B1u    2.030603     9B3u    2.032183     9B2u    2.032183  
       9B3g    2.154530     9B2g    2.154530    17Ag     2.158004  
      10B3u    2.202458    10B2u    2.202458     5B1g    2.254269  
      18Ag     2.254272    11B3u    2.255930    11B2u    2.255930  
      19Ag     2.260241    12B2u    2.285679    12B3u    2.285679  
      10B2g    2.342565    10B3g    2.342565    11B2g    2.465731  
      11B3g    2.465731     5Au     2.469662    18B1u    2.469664  
      19B1u    2.589602    20Ag     2.640094    12B3g    2.767196  
      12B2g    2.767196    20B1u    3.822162    21Ag     4.586877  
      21B1u    5.455292  

    Beta Occupied:                                                        

       1B1u  -88.893542     1Ag   -88.893535     2Ag    -7.899309  
       2B1u   -7.899195     3Ag    -5.845974     3B1u   -5.845651  
       1B3u   -5.841487     1B2u   -5.841487     1B2g   -5.841461  
       1B3g   -5.841461     4Ag    -0.660767     4B1u   -0.471969  
       5Ag    -0.238577     2B3u   -0.188528     2B2u   -0.188528  

    Beta Virtual:                                                         

       2B2g    0.109279     2B3g    0.109279     5B1u    0.219545  
       6Ag     0.240602     3B3u    0.241044     3B2u    0.241044  
       3B2g    0.293822     3B3g    0.293822     7Ag     0.295683  
       6B1u    0.304318     8Ag     0.361522     1B1g    0.361522  
       7B1u    0.389762     4B2u    0.418318     4B3u    0.418318  
       1Au     0.464093     8B1u    0.464093     9Ag     0.473268  
       9B1u    0.525884     4B3g    0.532079     4B2g    0.532079  
       5B3u    0.641824     5B2u    0.641824    10Ag     0.741968  
       6B3u    0.746363     6B2u    0.746363     5B3g    0.750587  
       5B2g    0.750587    10B1u    0.753319    11Ag     0.767673  
       2B1g    0.780403    12Ag     0.780403    13Ag     0.849032  
       2Au     0.867445    11B1u    0.867446     7B3u    0.887598  
       7B2u    0.887598     6B3g    0.935916     6B2g    0.935916  
       3B1g    0.954280    14Ag     0.954280     7B2g    1.026906  
       7B3g    1.026906    12B1u    1.036638     8B3u    1.190907  
       8B2u    1.190907    13B1u    1.223131     3Au     1.223131  
      14B1u    1.226395     8B3g    1.404310     8B2g    1.404310  
      15Ag     1.469216    15B1u    1.655868     4B1g    1.989579  
      16Ag     1.989581    16B1u    2.049082     9B3u    2.054080  
       9B2u    2.054080     4Au     2.059798    17B1u    2.059801  
      17Ag     2.169053     9B3g    2.181512     9B2g    2.181512  
      10B3u    2.228919    10B2u    2.228919     5B1g    2.284747  
      18Ag     2.284750    19Ag     2.285213    11B3u    2.295598  
      11B2u    2.295598    12B2u    2.331456    12B3u    2.331456  
      10B2g    2.387655    10B3g    2.387655    11B2g    2.499143  
      11B3g    2.499143     5Au     2.503408    18B1u    2.503410  
      19B1u    2.615359    20Ag     2.662616    12B3g    2.799655  
      12B2g    2.799655    20B1u    3.844411    21Ag     4.609323  
      21B1u    5.477179  

    Final Occupation by Irrep:
             Ag   B1g   B2g   B3g    Au   B1u   B2u   B3u 
    DOCC [     5,    0,    1,    1,    0,    4,    2,    2 ]
    SOCC [     0,    0,    1,    1,    0,    1,    0,    0 ]

  @DF-UKS Final Energy:  -796.36223241160019

   => Energetics <=

    Nuclear Repulsion Energy =             66.4538941659526898
    One-Electron Energy =               -1238.3759325743051249
    Two-Electron Energy =                 413.0873656993285294
    DFT Exchange-Correlation Energy =     -37.5275477111683458
    Empirical Dispersion Energy =          -0.0000119914079429
    VV10 Nonlocal Energy =                  0.0000000000000000
    Total Energy =                       -796.3622324116001892

  UHF NO Occupations:
  HONO-2 :    2B2g 1.0000000
  HONO-1 :    2B3g 1.0000000
  HONO-0 :    5B1u 1.0000000
  LUNO+0 :    3B2u 0.0028467
  LUNO+1 :    3B3u 0.0028467
  LUNO+2 :    6 Ag 0.0006235
  LUNO+3 :    6B1u 0.0003574


Computation Completed


Properties will be evaluated at   0.000000,   0.000000,   0.000000 [a0]

Properties computed using the SCF density matrix

  Nuclear Dipole Moment: [e a0]
     X:     0.0000      Y:     0.0000      Z:     0.0000

  Electronic Dipole Moment: [e a0]
     X:     0.0000      Y:     0.0000      Z:     0.0000

  Dipole Moment: [e a0]
     X:     0.0000      Y:     0.0000      Z:     0.0000     Total:     0.0000

  Dipole Moment: [D]
     X:     0.0000      Y:     0.0000      Z:     0.0000     Total:     0.0000


*** tstop() called on c4-11.compute.lan at Tue Feb  2 12:10:55 2021
Module time:
	user time   =      10.24 seconds =       0.17 minutes
	system time =       0.16 seconds =       0.00 minutes
	total time  =         10 seconds =       0.17 minutes
Total time:
	user time   =      26.14 seconds =       0.44 minutes
	system time =       0.60 seconds =       0.01 minutes
	total time  =         27 seconds =       0.45 minutes

*** tstart() called on c4-11.compute.lan
*** at Tue Feb  2 12:10:55 2021


         ------------------------------------------------------------
                                   SCF GRAD                          
                          Rob Parrish, Justin Turney,                
                       Andy Simmonett, and Alex Sokolov              
         ------------------------------------------------------------

  ==> Geometry <==

    Molecular point group: d2h
    Full point group: D_inf_h

    Geometry (in Angstrom), charge = -1, multiplicity = 4:

       Center              X                  Y                   Z               Mass       
    ------------   -----------------  -----------------  -----------------  -----------------
         S            0.000000000000     0.000000000000    -1.019273344563    31.972071174400
         S            0.000000000000     0.000000000000     1.019273344563    31.972071174400

  Nuclear repulsion =   66.453894165952690

  ==> Basis Set <==

  Basis Set: AUG-CC-PVTZ
    Blend: AUG-CC-PVTZ
    Number of shells: 32
    Number of basis function: 100
    Number of Cartesian functions: 118
    Spherical Harmonics?: true
    Max angular momentum: 3

  ==> DFJKGrad: Density-Fitted SCF Gradients <==

    Gradient:                    1
    J tasked:                  Yes
    K tasked:                  Yes
    wK tasked:                 Yes
    Omega:               2.000E-01
    OpenMP threads:              1
    Integrals threads:           1
    Memory [MiB]:             7152
    Schwarz Cutoff:          0E+00
    Fitting Condition:       1E-10

   => Auxiliary Basis Set <=

  Basis Set: (AUG-CC-PVTZ AUX)
    Blend: AUG-CC-PVTZ-JKFIT
    Number of shells: 84
    Number of basis function: 292
    Number of Cartesian functions: 360
    Spherical Harmonics?: true
    Max angular momentum: 4

  ==> DFT Potential <==

   => Composite Functional: WB97X-D <= 

    wB97X-D Hyb-GGA Exchange-Correlation Functional

    J.-D. Chai and M. Head-Gordon, Phys. Chem. Chem. Phys. 10, 6615 (2008)

    Deriv               =              1
    GGA                 =           TRUE
    Meta                =          FALSE

    Exchange Hybrid     =           TRUE
    MP2 Hybrid          =          FALSE

   => Exchange-Correlation Functionals <=

    1.0000   wB97D range-separated functional

   => Exact (HF) Exchange <=

    0.7780            HF,LR [omega = 0.2000]
    0.2220               HF 

   => Molecular Quadrature <=

    Radial Scheme          =       TREUTLER
    Pruning Scheme         =           NONE
    Nuclear Scheme         =       TREUTLER

    BS radius alpha        =              1
    Pruning alpha          =              1
    Radial Points          =             99
    Spherical Points       =            590
    Total Points           =         113394
    Total Blocks           =            978
    Max Points             =            256
    Max Functions          =            100
    Weights Tolerance      =       1.00E-15


  -Total Gradient:
     Atom            X                  Y                   Z
    ------   -----------------  -----------------  -----------------
       1       -0.000000000000     0.000000000000     0.023150178597
       2        0.000000000000    -0.000000000000    -0.023150178597


*** tstop() called on c4-11.compute.lan at Tue Feb  2 12:10:59 2021
Module time:
	user time   =       4.28 seconds =       0.07 minutes
	system time =       0.03 seconds =       0.00 minutes
	total time  =          4 seconds =       0.07 minutes
Total time:
	user time   =      30.42 seconds =       0.51 minutes
	system time =       0.63 seconds =       0.01 minutes
	total time  =         31 seconds =       0.52 minutes

			-----------------------------------------
			 OPTKING 2.0: for geometry optimizations 
			  - R.A. King,  Bethel University        
			-----------------------------------------

	Previous internal coordinate definitions found.
	---Fragment 1 Geometry and Gradient---
	 S           0.0000000000        0.0000000000       -1.9261474682
	 S           0.0000000000        0.0000000000        1.9261474682
	            -0.0000000000        0.0000000000        0.0231501786
	             0.0000000000       -0.0000000000       -0.0231501786

	---Fragment 1 Intrafragment Coordinates---
	 - Coordinate -           - BOHR/RAD -       - ANG/DEG -
	 R(1,2)           =         3.852295	       2.038547

	Current energy   :      -796.3622324116

	Energy change for the previous step:
		Projected    :         0.0008035912
		Actual       :        -0.0017700428

	Performing BFGS update.
	Previous computed or guess Hessian on step 1.
	Steps to be used in Hessian update: 1
	Taking RFO optimization step.
	Going to follow RFO solution 1.
	Using RFO vector 1.

	Determining step-restricting scale parameter for RS-RFO.
	Maximum step size allowed    0.50000

	 Iter      |step|        alpha        rfo_root  
	------------------------------------------------
	    0     0.54424       1.00000           1
	    1     0.50545       1.35570           1
	    2     0.50010       1.41251           1
	    3     0.50000       1.41359           1
	------------------------------------------------
	Norm of target step-size    0.50000
	Projected energy change by RFO approximation:         0.0907399393

	Back-transformation to cartesian coordinates...
	Successfully converged to displaced geometry.

	--- Internal Coordinate Step in ANG or DEG, aJ/ANG or AJ/DEG ---
	 ---------------------------------------------------------------------------
	   Coordinate                Previous        Force       Change         New 
	   ----------                --------       ------       ------       ------
	    1 R(1,2)          =      2.038547     0.190728     0.264589     2.303135
	 ---------------------------------------------------------------------------
	Successfully symmetrized geometry.

  ==> Convergence Check <==

  Measures of convergence in internal coordinates in au.
  Criteria marked as inactive (o), active & met (*), and active & unmet ( ).
  ---------------------------------------------------------------------------------------------
   Step     Total Energy     Delta E     MAX Force     RMS Force      MAX Disp      RMS Disp   
  ---------------------------------------------------------------------------------------------
    Convergence Criteria             o    2.00e-06 *    1.00e-06 *    6.00e-06 *    4.00e-06 *
  ---------------------------------------------------------------------------------------------
      2    -796.36223241   -1.77e-03 o    2.32e-02      2.32e-02      5.00e-01      5.00e-01    ~
  ---------------------------------------------------------------------------------------------

	Writing optimization data to binary file.
	Structure for next step:
	Cartesian Geometry (in Angstrom)
	    S     0.0000000000   0.0000000000  -1.1515676519
	    S     0.0000000000   0.0000000000   1.1515676519
			--------------------------
			 OPTKING Finished Execution 
			--------------------------

    Structure for next step:
    Molecular point group: d2h
    Full point group: D_inf_h

    Geometry (in Angstrom), charge = -1, multiplicity = 4:

    S       
    S             1          r1

    r1        =    2.3031353129

gradient() will perform analytic gradient computation.

*** tstart() called on c4-11.compute.lan
*** at Tue Feb  2 12:10:59 2021

   => Loading Basis Set <=

    Name: AUG-CC-PVTZ
    Role: ORBITAL
    Keyword: BASIS
    atoms 1-2 entry S          line   906 file /apps/gb/PSI4/1.4.0/share/psi4/basis/aug-cc-pvtz.gbs 

   => WB97X-D: Empirical Dispersion <=

    Chai and Head-Gordon Dispersion Correction
    Chai, J.-D.; Head-Gordon, M. (2010), J. Chem. Phys., 132: 6615-6620

        s6 =       1.000000


         ---------------------------------------------------------
                                   SCF
               by Justin Turney, Rob Parrish, Andy Simmonett
                          and Daniel G. A. Smith
                              UKS Reference
                        1 Threads,   9536 MiB Core
         ---------------------------------------------------------

  ==> Geometry <==

    Molecular point group: d2h
    Full point group: D_inf_h

    Geometry (in Angstrom), charge = -1, multiplicity = 4:

       Center              X                  Y                   Z               Mass       
    ------------   -----------------  -----------------  -----------------  -----------------
         S            0.000000000000     0.000000000000    -1.151567656455    31.972071174400
         S            0.000000000000     0.000000000000     1.151567656455    31.972071174400

  Running in d2h symmetry.

  Rotational constants: A = ************  B =      0.19880  C =      0.19880 [cm^-1]
  Rotational constants: A = ************  B =   5959.88000  C =   5959.88000 [MHz]
  Nuclear repulsion =   58.819542721692365

  Charge       = -1
  Multiplicity = 4
  Electrons    = 33
  Nalpha       = 18
  Nbeta        = 15

  ==> Algorithm <==

  SCF Algorithm Type is DF.
  DIIS enabled.
  MOM disabled.
  Fractional occupation disabled.
  Guess Type is READ.
  Energy threshold   = 1.00e-08
  Density threshold  = 1.00e-08
  Integral threshold = 0.00e+00

  ==> Primary Basis <==

  Basis Set: AUG-CC-PVTZ
    Blend: AUG-CC-PVTZ
    Number of shells: 32
    Number of basis function: 100
    Number of Cartesian functions: 118
    Spherical Harmonics?: true
    Max angular momentum: 3

  ==> DFT Potential <==

   => Composite Functional: WB97X-D <= 

    wB97X-D Hyb-GGA Exchange-Correlation Functional

    J.-D. Chai and M. Head-Gordon, Phys. Chem. Chem. Phys. 10, 6615 (2008)

    Deriv               =              1
    GGA                 =           TRUE
    Meta                =          FALSE

    Exchange Hybrid     =           TRUE
    MP2 Hybrid          =          FALSE

   => Exchange-Correlation Functionals <=

    1.0000   wB97D range-separated functional

   => Exact (HF) Exchange <=

    0.7780            HF,LR [omega = 0.2000]
    0.2220               HF 

   => Molecular Quadrature <=

    Radial Scheme          =       TREUTLER
    Pruning Scheme         =           NONE
    Nuclear Scheme         =       TREUTLER

    BS radius alpha        =              1
    Pruning alpha          =              1
    Radial Points          =             99
    Spherical Points       =            590
    Total Points           =         113446
    Total Blocks           =            984
    Max Points             =            252
    Max Functions          =            100
    Weights Tolerance      =       1.00E-15

   => Loading Basis Set <=

    Name: (AUG-CC-PVTZ AUX)
    Role: JKFIT
    Keyword: DF_BASIS_SCF
    atoms 1-2 entry S          line   730 file /apps/gb/PSI4/1.4.0/share/psi4/basis/aug-cc-pvtz-jkfit.gbs 

   => Loading Basis Set <=

    Name: AUG-CC-PVTZ
    Role: ORBITAL
    Keyword: BASIS
    atoms 1-2 entry S          line   906 file /apps/gb/PSI4/1.4.0/share/psi4/basis/aug-cc-pvtz.gbs 

  Reading orbitals from file 180, no projection.

  ==> Pre-Iterations <==

   -------------------------------------------------------
    Irrep   Nso     Nmo     Nalpha   Nbeta   Ndocc  Nsocc
   -------------------------------------------------------
     Ag        21      21       0       0       0       0
     B1g        5       5       0       0       0       0
     B2g       12      12       0       0       0       0
     B3g       12      12       0       0       0       0
     Au         5       5       0       0       0       0
     B1u       21      21       0       0       0       0
     B2u       12      12       0       0       0       0
     B3u       12      12       0       0       0       0
   -------------------------------------------------------
    Total     100     100      18      15      15       3
   -------------------------------------------------------

  ==> Integral Setup <==

  ==> DiskDFJK: Density-Fitted J/K Matrices <==

    J tasked:                  Yes
    K tasked:                  Yes
    wK tasked:                 Yes
    Omega:               2.000E-01
    OpenMP threads:              1
    Integrals threads:           1
    Memory [MiB]:             6844
    Algorithm:                Core
    Integral Cache:           NONE
    Schwarz Cutoff:          1E-12
    Fitting Condition:       1E-10

   => Auxiliary Basis Set <=

  Basis Set: (AUG-CC-PVTZ AUX)
    Blend: AUG-CC-PVTZ-JKFIT
    Number of shells: 84
    Number of basis function: 292
    Number of Cartesian functions: 360
    Spherical Harmonics?: true
    Max angular momentum: 4

  Cached 100.0% of DFT collocation blocks in 0.301 [GiB].

  Minimum eigenvalue in the overlap matrix is 5.3309470035E-04.
  Using Symmetric Orthogonalization.

  SCF Guess: Orbitals guess was supplied from a previous computation.

  ==> Iterations <==

                           Total Energy        Delta E     RMS |[F,P]|

   @DF-UKS iter   0:  -796.56441006260775   -7.96564e+02   4.46833e-02 
   @DF-UKS iter   1:  -796.35909382443015    2.05316e-01   2.13850e-03 DIIS
   @DF-UKS iter   2:  -796.36458055835840   -5.48673e-03   1.66852e-03 DIIS
   @DF-UKS iter   3:  -796.36722005159515   -2.63949e-03   2.88277e-04 DIIS
   @DF-UKS iter   4:  -796.36784354740894   -6.23496e-04   1.06555e-04 DIIS
   @DF-UKS iter   5:  -796.36796339082355   -1.19843e-04   4.94515e-05 DIIS
   @DF-UKS iter   6:  -796.36798150905884   -1.81182e-05   1.85381e-05 DIIS
   @DF-UKS iter   7:  -796.36798457065095   -3.06159e-06   3.53801e-06 DIIS
   @DF-UKS iter   8:  -796.36798464742969   -7.67787e-08   7.24109e-07 DIIS
   @DF-UKS iter   9:  -796.36798464973026   -2.30057e-09   1.22340e-07 DIIS
   @DF-UKS iter  10:  -796.36798464979574   -6.54836e-11   2.13495e-08 DIIS
   @DF-UKS iter  11:  -796.36798464979745   -1.70530e-12   6.35042e-09 DIIS
  Energy and wave function converged.


  ==> Post-Iterations <==

   @Spin Contamination Metric:   1.999173350E-02
   @S^2 Expected:                3.750000000E+00
   @S^2 Observed:                3.769991734E+00
   @S   Expected:                1.500000000E+00
   @S   Observed:                1.500000000E+00

    Orbital Energies [Eh]
    ---------------------

    Alpha Occupied:                                                       

       1B1u  -88.865659     1Ag   -88.865649     2Ag    -7.870935  
       2B1u   -7.870929     1B2g   -5.819146     1B3g   -5.819146  
       1B3u   -5.819137     1B2u   -5.819137     3Ag    -5.817841  
       3B1u   -5.817777     4Ag    -0.631290     4B1u   -0.537489  
       5Ag    -0.239167     2B2u   -0.201462     2B3u   -0.201462  
       2B3g   -0.131520     2B2g   -0.131520     5B1u   -0.020418  

    Alpha Virtual:                                                        

       6B1u    0.187805     6Ag     0.220206     3B3u    0.231320  
       3B2u    0.231320     3B3g    0.244324     3B2g    0.244324  
       7Ag     0.259920     7B1u    0.348574     1B1g    0.376798  
       8Ag     0.376799     4B3u    0.413460     4B2u    0.413460  
       1Au     0.459999     8B1u    0.460000     9Ag     0.467119  
       9B1u    0.494520     4B2g    0.524947     4B3g    0.524947  
       5B3u    0.647118     5B2u    0.647118     5B2g    0.741096  
       5B3g    0.741096    10B1u    0.758556    10Ag     0.761192  
       6B2u    0.764637     6B3u    0.764637    11Ag     0.786372  
       2B1g    0.793787    12Ag     0.793789    13Ag     0.817765  
       2Au     0.842150    11B1u    0.842152     6B2g    0.898390  
       6B3g    0.898390     7B3u    0.915607     7B2u    0.915607  
       3B1g    0.936633    14Ag     0.936633    12B1u    0.956936  
       7B2g    1.021824     7B3g    1.021824    13B1u    1.149403  
       8B2u    1.150782     8B3u    1.150782     3Au     1.195836  
      14B1u    1.195837     8B2g    1.380605     8B3g    1.380605  
      15Ag     1.382907    15B1u    1.616631    16Ag     1.985271  
       4B1g    1.985275     9B2u    2.025356     9B3u    2.025356  
      16B1u    2.045770     4Au     2.045774    17B1u    2.138432  
       9B2g    2.202736     9B3g    2.202736    17Ag     2.273950  
      10B3u    2.286886    10B2u    2.286886    18Ag     2.295474  
      11B3u    2.315412    11B2u    2.315412    12B3u    2.321724  
      12B2u    2.321724     5B1g    2.339827    19Ag     2.339830  
      10B2g    2.362602    10B3g    2.362602    20Ag     2.382775  
      11B2g    2.385552    11B3g    2.385552     5Au     2.437022  
      18B1u    2.437025    19B1u    2.523011    12B2g    2.630496  
      12B3g    2.630496    20B1u    3.462575    21Ag     4.343304  
      21B1u    5.462982  

    Beta Occupied:                                                        

       1B1u  -88.857132     1Ag   -88.857124     2Ag    -7.862139  
       2B1u   -7.862093     3Ag    -5.805778     3B1u   -5.805711  
       1B3u   -5.805372     1B2u   -5.805372     1B2g   -5.805368  
       1B3g   -5.805368     4Ag    -0.570964     4B1u   -0.454395  
       5Ag    -0.178074     2B2u   -0.128070     2B3u   -0.128070  

    Beta Virtual:                                                         

       2B2g    0.117664     2B3g    0.117664     5B1u    0.184699  
       6Ag     0.235903     3B3u    0.237138     3B2u    0.237138  
       6B1u    0.252868     3B3g    0.260060     3B2g    0.260060  
       7Ag     0.267071     7B1u    0.362697     1B1g    0.382549  
       8Ag     0.382549     4B3u    0.427219     4B2u    0.427219  
       8B1u    0.469746     1Au     0.469746     9Ag     0.486077  
       9B1u    0.505040     4B2g    0.535494     4B3g    0.535494  
       5B3u    0.666588     5B2u    0.666588     5B2g    0.754124  
       5B3g    0.754124    10Ag     0.766529    10B1u    0.771839  
       6B2u    0.782980     6B3u    0.782980    11Ag     0.812189  
       2B1g    0.827321    12Ag     0.827322    13Ag     0.847075  
       2Au     0.885141    11B1u    0.885141     7B3u    0.921884  
       7B2u    0.921884     6B2g    0.936003     6B3g    0.936003  
      14Ag     0.947318     3B1g    0.947318    12B1u    0.996295  
       7B2g    1.029838     7B3g    1.029838    13B1u    1.162432  
       8B2u    1.163305     8B3u    1.163305     3Au     1.204350  
      14B1u    1.204350     8B2g    1.394605     8B3g    1.394605  
      15Ag     1.400578    15B1u    1.647071    16Ag     2.020005  
       4B1g    2.020008     9B2u    2.054246     9B3u    2.054246  
      16B1u    2.079931     4Au     2.079934    17B1u    2.168691  
       9B2g    2.231492     9B3g    2.231492    17Ag     2.301235  
      18Ag     2.322137    10B3u    2.328341    10B2u    2.328341  
      11B3u    2.348058    11B2u    2.348058    12B3u    2.369151  
      12B2u    2.369151    19Ag     2.378173     5B1g    2.378173  
      10B2g    2.408709    10B3g    2.408709    20Ag     2.418346  
      11B2g    2.426544    11B3g    2.426544    18B1u    2.474705  
       5Au     2.474705    19B1u    2.557592    12B2g    2.665803  
      12B3g    2.665803    20B1u    3.488532    21Ag     4.368724  
      21B1u    5.481224  

    Final Occupation by Irrep:
             Ag   B1g   B2g   B3g    Au   B1u   B2u   B3u 
    DOCC [     5,    0,    1,    1,    0,    4,    2,    2 ]
    SOCC [     0,    0,    1,    1,    0,    1,    0,    0 ]

  @DF-UKS Final Energy:  -796.36798464979745

   => Energetics <=

    Nuclear Repulsion Energy =             58.8195427216923648
    One-Electron Energy =               -1224.3540793087913698
    Two-Electron Energy =                 406.6859700112910900
    DFT Exchange-Correlation Energy =     -37.5193931695052996
    Empirical Dispersion Energy =          -0.0000249044842694
    VV10 Nonlocal Energy =                  0.0000000000000000
    Total Energy =                       -796.3679846497973358

  UHF NO Occupations:
  HONO-2 :    5B1u 1.0000000
  HONO-1 :    2B3g 1.0000000
  HONO-0 :    2B2g 1.0000000
  LUNO+0 :    3B3u 0.0044201
  LUNO+1 :    3B2u 0.0044201
  LUNO+2 :    6 Ag 0.0009720
  LUNO+3 :    7 Ag 0.0001381


Computation Completed


Properties will be evaluated at   0.000000,   0.000000,   0.000000 [a0]

Properties computed using the SCF density matrix

  Nuclear Dipole Moment: [e a0]
     X:     0.0000      Y:     0.0000      Z:     0.0000

  Electronic Dipole Moment: [e a0]
     X:     0.0000      Y:     0.0000      Z:     0.0000

  Dipole Moment: [e a0]
     X:     0.0000      Y:     0.0000      Z:     0.0000     Total:     0.0000

  Dipole Moment: [D]
     X:     0.0000      Y:     0.0000      Z:     0.0000     Total:     0.0000


*** tstop() called on c4-11.compute.lan at Tue Feb  2 12:11:11 2021
Module time:
	user time   =      10.98 seconds =       0.18 minutes
	system time =       0.11 seconds =       0.00 minutes
	total time  =         12 seconds =       0.20 minutes
Total time:
	user time   =      41.42 seconds =       0.69 minutes
	system time =       0.74 seconds =       0.01 minutes
	total time  =         43 seconds =       0.72 minutes

*** tstart() called on c4-11.compute.lan
*** at Tue Feb  2 12:11:11 2021


         ------------------------------------------------------------
                                   SCF GRAD                          
                          Rob Parrish, Justin Turney,                
                       Andy Simmonett, and Alex Sokolov              
         ------------------------------------------------------------

  ==> Geometry <==

    Molecular point group: d2h
    Full point group: D_inf_h

    Geometry (in Angstrom), charge = -1, multiplicity = 4:

       Center              X                  Y                   Z               Mass       
    ------------   -----------------  -----------------  -----------------  -----------------
         S            0.000000000000     0.000000000000    -1.151567656455    31.972071174400
         S            0.000000000000     0.000000000000     1.151567656455    31.972071174400

  Nuclear repulsion =   58.819542721692365

  ==> Basis Set <==

  Basis Set: AUG-CC-PVTZ
    Blend: AUG-CC-PVTZ
    Number of shells: 32
    Number of basis function: 100
    Number of Cartesian functions: 118
    Spherical Harmonics?: true
    Max angular momentum: 3

  ==> DFJKGrad: Density-Fitted SCF Gradients <==

    Gradient:                    1
    J tasked:                  Yes
    K tasked:                  Yes
    wK tasked:                 Yes
    Omega:               2.000E-01
    OpenMP threads:              1
    Integrals threads:           1
    Memory [MiB]:             7152
    Schwarz Cutoff:          0E+00
    Fitting Condition:       1E-10

   => Auxiliary Basis Set <=

  Basis Set: (AUG-CC-PVTZ AUX)
    Blend: AUG-CC-PVTZ-JKFIT
    Number of shells: 84
    Number of basis function: 292
    Number of Cartesian functions: 360
    Spherical Harmonics?: true
    Max angular momentum: 4

  ==> DFT Potential <==

   => Composite Functional: WB97X-D <= 

    wB97X-D Hyb-GGA Exchange-Correlation Functional

    J.-D. Chai and M. Head-Gordon, Phys. Chem. Chem. Phys. 10, 6615 (2008)

    Deriv               =              1
    GGA                 =           TRUE
    Meta                =          FALSE

    Exchange Hybrid     =           TRUE
    MP2 Hybrid          =          FALSE

   => Exchange-Correlation Functionals <=

    1.0000   wB97D range-separated functional

   => Exact (HF) Exchange <=

    0.7780            HF,LR [omega = 0.2000]
    0.2220               HF 

   => Molecular Quadrature <=

    Radial Scheme          =       TREUTLER
    Pruning Scheme         =           NONE
    Nuclear Scheme         =       TREUTLER

    BS radius alpha        =              1
    Pruning alpha          =              1
    Radial Points          =             99
    Spherical Points       =            590
    Total Points           =         113446
    Total Blocks           =            984
    Max Points             =            252
    Max Functions          =            100
    Weights Tolerance      =       1.00E-15


  -Total Gradient:
     Atom            X                  Y                   Z
    ------   -----------------  -----------------  -----------------
       1        0.000000000000     0.000000000000    -0.002450747359
       2        0.000000000000    -0.000000000000     0.002450747359


*** tstop() called on c4-11.compute.lan at Tue Feb  2 12:11:15 2021
Module time:
	user time   =       4.24 seconds =       0.07 minutes
	system time =       0.03 seconds =       0.00 minutes
	total time  =          4 seconds =       0.07 minutes
Total time:
	user time   =      45.67 seconds =       0.76 minutes
	system time =       0.77 seconds =       0.01 minutes
	total time  =         47 seconds =       0.78 minutes

			-----------------------------------------
			 OPTKING 2.0: for geometry optimizations 
			  - R.A. King,  Bethel University        
			-----------------------------------------

	Previous internal coordinate definitions found.
	---Fragment 1 Geometry and Gradient---
	 S           0.0000000000        0.0000000000       -2.1761474856
	 S           0.0000000000        0.0000000000        2.1761474856
	             0.0000000000        0.0000000000       -0.0024507474
	             0.0000000000       -0.0000000000        0.0024507474

	---Fragment 1 Intrafragment Coordinates---
	 - Coordinate -           - BOHR/RAD -       - ANG/DEG -
	 R(1,2)           =         4.352295	       2.303135

	Current energy   :      -796.3679846498

	Energy change for the previous step:
		Projected    :         0.0907399393
		Actual       :        -0.0057522382

	Performing BFGS update.
	Previous computed or guess Hessian on step 1.
	Change in internal coordinate of 5.00e-01 exceeds limit of 5.00e-01.
	 Skipping Hessian update for step 2.
	Steps to be used in Hessian update: 1
	Taking RFO optimization step.
	Going to follow RFO solution 1.
	Using RFO vector 1.
	Norm of target step-size    0.05040
	Projected energy change by RFO approximation:         0.0011438793

	Back-transformation to cartesian coordinates...
	Successfully converged to displaced geometry.

	--- Internal Coordinate Step in ANG or DEG, aJ/ANG or AJ/DEG ---
	 ---------------------------------------------------------------------------
	   Coordinate                Previous        Force       Change         New 
	   ----------                --------       ------       ------       ------
	    1 R(1,2)          =      2.303135    -0.020191    -0.026673     2.276462
	 ---------------------------------------------------------------------------
	Successfully symmetrized geometry.

  ==> Convergence Check <==

  Measures of convergence in internal coordinates in au.
  Criteria marked as inactive (o), active & met (*), and active & unmet ( ).
  ---------------------------------------------------------------------------------------------
   Step     Total Energy     Delta E     MAX Force     RMS Force      MAX Disp      RMS Disp   
  ---------------------------------------------------------------------------------------------
    Convergence Criteria             o    2.00e-06 *    1.00e-06 *    6.00e-06 *    4.00e-06 *
  ---------------------------------------------------------------------------------------------
      3    -796.36798465   -5.75e-03 o    2.45e-03      2.45e-03      5.04e-02      5.04e-02    ~
  ---------------------------------------------------------------------------------------------

	Writing optimization data to binary file.
	Structure for next step:
	Cartesian Geometry (in Angstrom)
	    S     0.0000000000   0.0000000000  -1.1382311552
	    S     0.0000000000   0.0000000000   1.1382311552
			--------------------------
			 OPTKING Finished Execution 
			--------------------------

    Structure for next step:
    Molecular point group: d2h
    Full point group: D_inf_h

    Geometry (in Angstrom), charge = -1, multiplicity = 4:

    S       
    S             1          r1

    r1        =    2.2764623194

gradient() will perform analytic gradient computation.

*** tstart() called on c4-11.compute.lan
*** at Tue Feb  2 12:11:15 2021

   => Loading Basis Set <=

    Name: AUG-CC-PVTZ
    Role: ORBITAL
    Keyword: BASIS
    atoms 1-2 entry S          line   906 file /apps/gb/PSI4/1.4.0/share/psi4/basis/aug-cc-pvtz.gbs 

   => WB97X-D: Empirical Dispersion <=

    Chai and Head-Gordon Dispersion Correction
    Chai, J.-D.; Head-Gordon, M. (2010), J. Chem. Phys., 132: 6615-6620

        s6 =       1.000000


         ---------------------------------------------------------
                                   SCF
               by Justin Turney, Rob Parrish, Andy Simmonett
                          and Daniel G. A. Smith
                              UKS Reference
                        1 Threads,   9536 MiB Core
         ---------------------------------------------------------

  ==> Geometry <==

    Molecular point group: d2h
    Full point group: D_inf_h

    Geometry (in Angstrom), charge = -1, multiplicity = 4:

       Center              X                  Y                   Z               Mass       
    ------------   -----------------  -----------------  -----------------  -----------------
         S            0.000000000000     0.000000000000    -1.138231159686    31.972071174400
         S            0.000000000000     0.000000000000     1.138231159686    31.972071174400

  Running in d2h symmetry.

  Rotational constants: A = ************  B =      0.20349  C =      0.20349 [cm^-1]
  Rotational constants: A = ************  B =   6100.36038  C =   6100.36038 [MHz]
  Nuclear repulsion =   59.508723152895755

  Charge       = -1
  Multiplicity = 4
  Electrons    = 33
  Nalpha       = 18
  Nbeta        = 15

  ==> Algorithm <==

  SCF Algorithm Type is DF.
  DIIS enabled.
  MOM disabled.
  Fractional occupation disabled.
  Guess Type is READ.
  Energy threshold   = 1.00e-08
  Density threshold  = 1.00e-08
  Integral threshold = 0.00e+00

  ==> Primary Basis <==

  Basis Set: AUG-CC-PVTZ
    Blend: AUG-CC-PVTZ
    Number of shells: 32
    Number of basis function: 100
    Number of Cartesian functions: 118
    Spherical Harmonics?: true
    Max angular momentum: 3

  ==> DFT Potential <==

   => Composite Functional: WB97X-D <= 

    wB97X-D Hyb-GGA Exchange-Correlation Functional

    J.-D. Chai and M. Head-Gordon, Phys. Chem. Chem. Phys. 10, 6615 (2008)

    Deriv               =              1
    GGA                 =           TRUE
    Meta                =          FALSE

    Exchange Hybrid     =           TRUE
    MP2 Hybrid          =          FALSE

   => Exchange-Correlation Functionals <=

    1.0000   wB97D range-separated functional

   => Exact (HF) Exchange <=

    0.7780            HF,LR [omega = 0.2000]
    0.2220               HF 

   => Molecular Quadrature <=

    Radial Scheme          =       TREUTLER
    Pruning Scheme         =           NONE
    Nuclear Scheme         =       TREUTLER

    BS radius alpha        =              1
    Pruning alpha          =              1
    Radial Points          =             99
    Spherical Points       =            590
    Total Points           =         113430
    Total Blocks           =            982
    Max Points             =            254
    Max Functions          =            100
    Weights Tolerance      =       1.00E-15

   => Loading Basis Set <=

    Name: (AUG-CC-PVTZ AUX)
    Role: JKFIT
    Keyword: DF_BASIS_SCF
    atoms 1-2 entry S          line   730 file /apps/gb/PSI4/1.4.0/share/psi4/basis/aug-cc-pvtz-jkfit.gbs 

   => Loading Basis Set <=

    Name: AUG-CC-PVTZ
    Role: ORBITAL
    Keyword: BASIS
    atoms 1-2 entry S          line   906 file /apps/gb/PSI4/1.4.0/share/psi4/basis/aug-cc-pvtz.gbs 

  Reading orbitals from file 180, no projection.

  ==> Pre-Iterations <==

   -------------------------------------------------------
    Irrep   Nso     Nmo     Nalpha   Nbeta   Ndocc  Nsocc
   -------------------------------------------------------
     Ag        21      21       0       0       0       0
     B1g        5       5       0       0       0       0
     B2g       12      12       0       0       0       0
     B3g       12      12       0       0       0       0
     Au         5       5       0       0       0       0
     B1u       21      21       0       0       0       0
     B2u       12      12       0       0       0       0
     B3u       12      12       0       0       0       0
   -------------------------------------------------------
    Total     100     100      18      15      15       3
   -------------------------------------------------------

  ==> Integral Setup <==

  ==> DiskDFJK: Density-Fitted J/K Matrices <==

    J tasked:                  Yes
    K tasked:                  Yes
    wK tasked:                 Yes
    Omega:               2.000E-01
    OpenMP threads:              1
    Integrals threads:           1
    Memory [MiB]:             6844
    Algorithm:                Core
    Integral Cache:           NONE
    Schwarz Cutoff:          1E-12
    Fitting Condition:       1E-10

   => Auxiliary Basis Set <=

  Basis Set: (AUG-CC-PVTZ AUX)
    Blend: AUG-CC-PVTZ-JKFIT
    Number of shells: 84
    Number of basis function: 292
    Number of Cartesian functions: 360
    Spherical Harmonics?: true
    Max angular momentum: 4

  Cached 100.0% of DFT collocation blocks in 0.301 [GiB].

  Minimum eigenvalue in the overlap matrix is 5.0323992065E-04.
  Using Symmetric Orthogonalization.

  SCF Guess: Orbitals guess was supplied from a previous computation.

  ==> Iterations <==

                           Total Energy        Delta E     RMS |[F,P]|

   @DF-UKS iter   0:  -796.37254007975321   -7.96373e+02   1.72324e-03 
   @DF-UKS iter   1:  -796.36802093327299    4.51915e-03   6.04331e-05 DIIS
   @DF-UKS iter   2:  -796.36803181930952   -1.08860e-05   2.53247e-05 DIIS
   @DF-UKS iter   3:  -796.36803460441570   -2.78511e-06   1.66075e-05 DIIS
   @DF-UKS iter   4:  -796.36803565216042   -1.04774e-06   5.62373e-06 DIIS
   @DF-UKS iter   5:  -796.36803598399047   -3.31830e-07   2.59845e-06 DIIS
   @DF-UKS iter   6:  -796.36803604945385   -6.54634e-08   5.40871e-07 DIIS
   @DF-UKS iter   7:  -796.36803605197474   -2.52089e-09   1.31969e-07 DIIS
   @DF-UKS iter   8:  -796.36803605204977   -7.50333e-11   2.45225e-08 DIIS
   @DF-UKS iter   9:  -796.36803605205193   -2.16005e-12   5.51355e-09 DIIS
  Energy and wave function converged.


  ==> Post-Iterations <==

   @Spin Contamination Metric:   1.927762120E-02
   @S^2 Expected:                3.750000000E+00
   @S^2 Observed:                3.769277621E+00
   @S   Expected:                1.500000000E+00
   @S   Observed:                1.500000000E+00

    Orbital Energies [Eh]
    ---------------------

    Alpha Occupied:                                                       

       1B1u  -88.866550     1Ag   -88.866540     2Ag    -7.871884  
       2B1u   -7.871876     1B3g   -5.820061     1B2g   -5.820061  
       1B2u   -5.820052     1B3u   -5.820052     3Ag    -5.818759  
       3B1u   -5.818684     4Ag    -0.635661     4B1u   -0.536521  
       5Ag    -0.241693     2B3u   -0.204117     2B2u   -0.204117  
       2B2g   -0.130922     2B3g   -0.130922     5B1u   -0.015221  

    Alpha Virtual:                                                        

       6B1u    0.188151     6Ag     0.218981     3B3u    0.230847  
       3B2u    0.230847     3B3g    0.243891     3B2g    0.243891  
       7Ag     0.259317     7B1u    0.348705     1B1g    0.375993  
       8Ag     0.375993     4B2u    0.413749     4B3u    0.413749  
       1Au     0.460573     8B1u    0.460573     9Ag     0.465449  
       9B1u    0.496128     4B3g    0.524903     4B2g    0.524903  
       5B3u    0.646303     5B2u    0.646303     5B3g    0.741961  
       5B2g    0.741961    10B1u    0.756334    10Ag     0.761809  
       6B2u    0.762287     6B3u    0.762287    11Ag     0.785677  
       2B1g    0.791668    12Ag     0.791669    13Ag     0.816045  
       2Au     0.842160    11B1u    0.842161     6B3g    0.899960  
       6B2g    0.899960     7B2u    0.913839     7B3u    0.913839  
       3B1g    0.938674    14Ag     0.938674    12B1u    0.962497  
       7B3g    1.023017     7B2g    1.023017     8B2u    1.155626  
       8B3u    1.155626    13B1u    1.156785     3Au     1.199344  
      14B1u    1.199345     8B3g    1.382533     8B2g    1.382533  
      15Ag     1.390052    15B1u    1.619822    16Ag     1.984270  
       4B1g    1.984273     9B2u    2.029593     9B3u    2.029593  
      16B1u    2.046005     4Au     2.046008    17B1u    2.128809  
       9B2g    2.201529     9B3g    2.201529    17Ag     2.265377  
      10B2u    2.285868    10B3u    2.285868    11B2u    2.301879  
      11B3u    2.301879    18Ag     2.310464    12B3u    2.320556  
      12B2u    2.320556     5B1g    2.335525    19Ag     2.335529  
      10B2g    2.362380    10B3g    2.362380    20Ag     2.386454  
      11B3g    2.392938    11B2g    2.392938     5Au     2.440566  
      18B1u    2.440571    19B1u    2.530355    12B3g    2.644940  
      12B2g    2.644940    20B1u    3.508547    21Ag     4.362368  
      21B1u    5.468556  

    Beta Occupied:                                                        

       1B1u  -88.858080     1Ag   -88.858072     2Ag    -7.863140  
       2B1u   -7.863091     3Ag    -5.806965     3B1u   -5.806887  
       1B2u   -5.806312     1B3u   -5.806312     1B3g   -5.806307  
       1B2g   -5.806307     4Ag    -0.576206     4B1u   -0.453920  
       5Ag    -0.181621     2B3u   -0.131387     2B2u   -0.131387  

    Beta Virtual:                                                         

       2B3g    0.118557     2B2g    0.118557     5B1u    0.187770  
       3B3u    0.237120     3B2u    0.237120     6Ag     0.237308  
       6B1u    0.257353     3B3g    0.261472     3B2g    0.261472  
       7Ag     0.267359     7B1u    0.364130     1B1g    0.381685  
       8Ag     0.381685     4B2u    0.427587     4B3u    0.427587  
       8B1u    0.470167     1Au     0.470167     9Ag     0.485123  
       9B1u    0.506816     4B3g    0.535478     4B2g    0.535478  
       5B3u    0.665709     5B2u    0.665709     5B3g    0.754900  
       5B2g    0.754900    10Ag     0.766173    10B1u    0.770072  
       6B2u    0.780658     6B3u    0.780658    11Ag     0.809837  
       2B1g    0.824684    12Ag     0.824685    13Ag     0.847339  
       2Au     0.885099    11B1u    0.885099     7B2u    0.920020  
       7B3u    0.920020     6B3g    0.937207     6B2g    0.937207  
      14Ag     0.949468     3B1g    0.949468    12B1u    1.001005  
       7B3g    1.030974     7B2g    1.030974     8B2u    1.167958  
       8B3u    1.167958    13B1u    1.169623     3Au     1.207722  
      14B1u    1.207722     8B3g    1.396800     8B2g    1.396800  
      15Ag     1.408318    15B1u    1.650500    16Ag     2.018963  
       4B1g    2.018967     9B2u    2.058047     9B3u    2.058047  
      16B1u    2.080112     4Au     2.080116    17B1u    2.158185  
       9B2g    2.230182     9B3g    2.230182    17Ag     2.290401  
      10B2u    2.326789    10B3u    2.326789    11B2u    2.334524  
      11B3u    2.334524    18Ag     2.337654    12B3u    2.367932  
      12B2u    2.367932    19Ag     2.373267     5B1g    2.373267  
      10B2g    2.408459    10B3g    2.408459    20Ag     2.421294  
      11B3g    2.433389    11B2g    2.433389     5Au     2.477924  
      18B1u    2.477924    19B1u    2.563744    12B3g    2.680107  
      12B2g    2.680107    20B1u    3.534832    21Ag     4.387603  
      21B1u    5.486892  

    Final Occupation by Irrep:
             Ag   B1g   B2g   B3g    Au   B1u   B2u   B3u 
    DOCC [     5,    0,    1,    1,    0,    4,    2,    2 ]
    SOCC [     0,    0,    1,    1,    0,    1,    0,    0 ]

  @DF-UKS Final Energy:  -796.36803605205193

   => Energetics <=

    Nuclear Repulsion Energy =             59.5087231528957545
    One-Electron Energy =               -1225.6920544485635673
    Two-Electron Energy =                 407.3369830362054245
    DFT Exchange-Correlation Energy =     -37.5216645639969641
    Empirical Dispersion Energy =          -0.0000232285927864
    VV10 Nonlocal Energy =                  0.0000000000000000
    Total Energy =                       -796.3680360520521617

  UHF NO Occupations:
  HONO-2 :    5B1u 1.0000000
  HONO-1 :    2B2g 1.0000000
  HONO-0 :    2B3g 1.0000000
  LUNO+0 :    3B2u 0.0042714
  LUNO+1 :    3B3u 0.0042714
  LUNO+2 :    6 Ag 0.0009061
  LUNO+3 :    7 Ag 0.0001338


Computation Completed


Properties will be evaluated at   0.000000,   0.000000,   0.000000 [a0]

Properties computed using the SCF density matrix

  Nuclear Dipole Moment: [e a0]
     X:     0.0000      Y:     0.0000      Z:     0.0000

  Electronic Dipole Moment: [e a0]
     X:     0.0000      Y:     0.0000      Z:     0.0000

  Dipole Moment: [e a0]
     X:     0.0000      Y:     0.0000      Z:     0.0000     Total:     0.0000

  Dipole Moment: [D]
     X:     0.0000      Y:     0.0000      Z:     0.0000     Total:     0.0000


*** tstop() called on c4-11.compute.lan at Tue Feb  2 12:11:24 2021
Module time:
	user time   =       9.20 seconds =       0.15 minutes
	system time =       0.10 seconds =       0.00 minutes
	total time  =          9 seconds =       0.15 minutes
Total time:
	user time   =      54.89 seconds =       0.91 minutes
	system time =       0.87 seconds =       0.01 minutes
	total time  =         56 seconds =       0.93 minutes

*** tstart() called on c4-11.compute.lan
*** at Tue Feb  2 12:11:24 2021


         ------------------------------------------------------------
                                   SCF GRAD                          
                          Rob Parrish, Justin Turney,                
                       Andy Simmonett, and Alex Sokolov              
         ------------------------------------------------------------

  ==> Geometry <==

    Molecular point group: d2h
    Full point group: D_inf_h

    Geometry (in Angstrom), charge = -1, multiplicity = 4:

       Center              X                  Y                   Z               Mass       
    ------------   -----------------  -----------------  -----------------  -----------------
         S            0.000000000000     0.000000000000    -1.138231159686    31.972071174400
         S            0.000000000000     0.000000000000     1.138231159686    31.972071174400

  Nuclear repulsion =   59.508723152895769

  ==> Basis Set <==

  Basis Set: AUG-CC-PVTZ
    Blend: AUG-CC-PVTZ
    Number of shells: 32
    Number of basis function: 100
    Number of Cartesian functions: 118
    Spherical Harmonics?: true
    Max angular momentum: 3

  ==> DFJKGrad: Density-Fitted SCF Gradients <==

    Gradient:                    1
    J tasked:                  Yes
    K tasked:                  Yes
    wK tasked:                 Yes
    Omega:               2.000E-01
    OpenMP threads:              1
    Integrals threads:           1
    Memory [MiB]:             7152
    Schwarz Cutoff:          0E+00
    Fitting Condition:       1E-10

   => Auxiliary Basis Set <=

  Basis Set: (AUG-CC-PVTZ AUX)
    Blend: AUG-CC-PVTZ-JKFIT
    Number of shells: 84
    Number of basis function: 292
    Number of Cartesian functions: 360
    Spherical Harmonics?: true
    Max angular momentum: 4

  ==> DFT Potential <==

   => Composite Functional: WB97X-D <= 

    wB97X-D Hyb-GGA Exchange-Correlation Functional

    J.-D. Chai and M. Head-Gordon, Phys. Chem. Chem. Phys. 10, 6615 (2008)

    Deriv               =              1
    GGA                 =           TRUE
    Meta                =          FALSE

    Exchange Hybrid     =           TRUE
    MP2 Hybrid          =          FALSE

   => Exchange-Correlation Functionals <=

    1.0000   wB97D range-separated functional

   => Exact (HF) Exchange <=

    0.7780            HF,LR [omega = 0.2000]
    0.2220               HF 

   => Molecular Quadrature <=

    Radial Scheme          =       TREUTLER
    Pruning Scheme         =           NONE
    Nuclear Scheme         =       TREUTLER

    BS radius alpha        =              1
[...]
     B3u       12      12       0       0       0       0
   -------------------------------------------------------
    Total     100     100      18      15      15       3
   -------------------------------------------------------

  ==> Integral Setup <==

  ==> DiskDFJK: Density-Fitted J/K Matrices <==

    J tasked:                  Yes
    K tasked:                  Yes
    wK tasked:                 Yes
    Omega:               2.000E-01
    OpenMP threads:              1
    Integrals threads:           1
    Memory [MiB]:             6844
    Algorithm:                Core
    Integral Cache:           NONE
    Schwarz Cutoff:          1E-12
    Fitting Condition:       1E-10

   => Auxiliary Basis Set <=

  Basis Set: (AUG-CC-PVTZ AUX)
    Blend: AUG-CC-PVTZ-JKFIT
    Number of shells: 84
    Number of basis function: 292
    Number of Cartesian functions: 360
    Spherical Harmonics?: true
    Max angular momentum: 4

  Cached 100.0% of DFT collocation blocks in 0.301 [GiB].

  Minimum eigenvalue in the overlap matrix is 5.0819296085E-04.
  Using Symmetric Orthogonalization.

  SCF Guess: Superposition of Atomic Densities via on-the-fly atomic UHF.

  ==> Iterations <==

                           Total Energy        Delta E     RMS |[F,P]|

   @DF-UKS iter SAD:  -795.65450724386028   -7.95655e+02   0.00000e+00 
   @DF-UKS iter   1:  -796.28534499599664   -6.30838e-01   9.79820e-03 DIIS
   @DF-UKS iter   2:  -796.34187959414476   -5.65346e-02   6.35100e-03 DIIS
   @DF-UKS iter   3:  -796.36743840184261   -2.55588e-02   6.20904e-04 DIIS
   @DF-UKS iter   4:  -796.36790132638077   -4.62925e-04   2.43698e-04 DIIS
   @DF-UKS iter   5:  -796.36802716617603   -1.25840e-04   4.25640e-05 DIIS
   @DF-UKS iter   6:  -796.36803588210091   -8.71592e-06   1.51635e-05 DIIS
   @DF-UKS iter   7:  -796.36803788586099   -2.00376e-06   6.01080e-06 DIIS
   @DF-UKS iter   8:  -796.36803821600199   -3.30141e-07   1.50630e-06 DIIS
   @DF-UKS iter   9:  -796.36803824423805   -2.82361e-08   3.12701e-07 DIIS
   @DF-UKS iter  10:  -796.36803824458229   -3.44244e-10   4.49541e-08 DIIS
   @DF-UKS iter  11:  -796.36803824459002   -7.73070e-12   7.06460e-09 DIIS
  Energy and wave function converged.


  ==> Post-Iterations <==

   @Spin Contamination Metric:   1.939920509E-02
   @S^2 Expected:                3.750000000E+00
   @S^2 Observed:                3.769399205E+00
   @S   Expected:                1.500000000E+00
   @S   Observed:                1.500000000E+00

    Orbital Energies [Eh]
    ---------------------

    Alpha Occupied:                                                       

       1B1u  -88.866373     1Ag   -88.866363     2Ag    -7.871697  
       2B1u   -7.871689     1B2g   -5.819880     1B3g   -5.819880  
       1B3u   -5.819871     1B2u   -5.819871     3Ag    -5.818577  
       3B1u   -5.818504     4Ag    -0.634883     4B1u   -0.536669  
       5Ag    -0.241248     2B3u   -0.203640     2B2u   -0.203640  
       2B3g   -0.131007     2B2g   -0.131007     5B1u   -0.016105  

    Alpha Virtual:                                                        

       6B1u    0.188091     6Ag     0.219208     3B3u    0.230936  
       3B2u    0.230936     3B3g    0.243974     3B2g    0.243974  
       7Ag     0.259429     7B1u    0.348687     1B1g    0.376142  
       8Ag     0.376142     4B2u    0.413713     4B3u    0.413713  
       1Au     0.460486     8B1u    0.460486     9Ag     0.465747  
       9B1u    0.495855     4B2g    0.524920     4B3g    0.524920  
       5B3u    0.646459     5B2u    0.646459     5B2g    0.741830  
       5B3g    0.741830    10B1u    0.756718    10Ag     0.761755  
       6B3u    0.762701     6B2u    0.762701    11Ag     0.785819  
       2B1g    0.792049    12Ag     0.792051    13Ag     0.816308  
       2Au     0.842173    11B1u    0.842175     6B2g    0.899701  
       6B3g    0.899701     7B3u    0.914153     7B2u    0.914153  
       3B1g    0.938337    14Ag     0.938338    12B1u    0.961552  
       7B2g    1.022826     7B3g    1.022826     8B2u    1.154823  
       8B3u    1.154823    13B1u    1.155536     3Au     1.198762  
      14B1u    1.198762     8B2g    1.382221     8B3g    1.382221  
      15Ag     1.388840    15B1u    1.619308    16Ag     1.984457  
       4B1g    1.984460     9B2u    2.028878     9B3u    2.028878  
      16B1u    2.045985     4Au     2.045989    17B1u    2.130455  
       9B3g    2.201781     9B2g    2.201781    17Ag     2.266910  
      10B2u    2.286063    10B3u    2.286063    11B2u    2.304187  
      11B3u    2.304187    18Ag     2.308414    12B3u    2.320778  
      12B2u    2.320778     5B1g    2.336311    19Ag     2.336314  
      10B2g    2.362434    10B3g    2.362434    20Ag     2.385198  
      11B3g    2.391661    11B2g    2.391661     5Au     2.439957  
      18B1u    2.439961    19B1u    2.529105    12B2g    2.642476  
      12B3g    2.642476    20B1u    3.500795    21Ag     4.359058  
      21B1u    5.467765  

    Beta Occupied:                                                        

       1B1u  -88.857892     1Ag   -88.857884     2Ag    -7.862943  
       2B1u   -7.862894     3Ag    -5.806735     3B1u   -5.806659  
       1B3u   -5.806126     1B2u   -5.806126     1B2g   -5.806121  
       1B3g   -5.806121     4Ag    -0.575275     4B1u   -0.453980  
       5Ag    -0.180994     2B3u   -0.130796     2B2u   -0.130796  

    Beta Virtual:                                                         

       2B3g    0.118421     2B2g    0.118421     5B1u    0.187234  
       6Ag     0.237060     3B3u    0.237121     3B2u    0.237121  
       6B1u    0.256575     3B3g    0.261213     3B2g    0.261213  
       7Ag     0.267296     7B1u    0.363875     1B1g    0.381843  
       8Ag     0.381843     4B2u    0.427536     4B3u    0.427536  
       8B1u    0.470106     1Au     0.470106     9Ag     0.485291  
       9B1u    0.506511     4B2g    0.535487     4B3g    0.535487  
       5B3u    0.665876     5B2u    0.665876     5B2g    0.754782  
       5B3g    0.754782    10Ag     0.766265    10B1u    0.770371  
       6B3u    0.781066     6B2u    0.781066    11Ag     0.810274  
       2B1g    0.825153    12Ag     0.825154    13Ag     0.847274  
       2Au     0.885122    11B1u    0.885123     7B3u    0.920352  
       7B2u    0.920352     6B2g    0.937014     6B3g    0.937014  
      14Ag     0.949115     3B1g    0.949115    12B1u    1.000210  
       7B2g    1.030793     7B3g    1.030793     8B2u    1.167188  
       8B3u    1.167188    13B1u    1.168408     3Au     1.207163  
      14B1u    1.207163     8B2g    1.396441     8B3g    1.396441  
      15Ag     1.407003    15B1u    1.649943    16Ag     2.019158  
       4B1g    2.019162     9B2u    2.057409     9B3u    2.057409  
      16B1u    2.080102     4Au     2.080106    17B1u    2.159988  
       9B3g    2.230452     9B2g    2.230452    17Ag     2.292308  
      10B2u    2.327149    10B3u    2.327149    18Ag     2.335456  
      11B2u    2.336759    11B3u    2.336759    12B3u    2.368164  
      12B2u    2.368164    19Ag     2.374158     5B1g    2.374158  
      10B2g    2.408519    10B3g    2.408519    20Ag     2.420246  
      11B3g    2.432209    11B2g    2.432209     5Au     2.477371  
      18B1u    2.477371    19B1u    2.562702    12B2g    2.677666  
      12B3g    2.677666    20B1u    3.527030    21Ag     4.384326  
      21B1u    5.486080  

    Final Occupation by Irrep:
             Ag   B1g   B2g   B3g    Au   B1u   B2u   B3u 
    DOCC [     5,    0,    1,    1,    0,    4,    2,    2 ]
    SOCC [     0,    0,    1,    1,    0,    1,    0,    0 ]

  @DF-UKS Final Energy:  -796.36803824459002

   => Energetics <=

    Nuclear Repulsion Energy =             59.3906334272070140
    One-Electron Energy =               -1225.4635788948294248
    Two-Electron Energy =                 407.2262234237126108
    DFT Exchange-Correlation Energy =     -37.5212926944500254
    Empirical Dispersion Energy =          -0.0000235062301724
    VV10 Nonlocal Energy =                  0.0000000000000000
    Total Energy =                       -796.3680382445901387

  UHF NO Occupations:
  HONO-2 :    2B2g 1.0000000
  HONO-1 :    2B3g 1.0000000
  HONO-0 :    5B1u 1.0000000
  LUNO+0 :    3B2u 0.0042971
  LUNO+1 :    3B3u 0.0042971
  LUNO+2 :    6 Ag 0.0009169
  LUNO+3 :    7 Ag 0.0001345


Computation Completed


Properties will be evaluated at   0.000000,   0.000000,   0.000000 [a0]

Properties computed using the SCF density matrix

  Nuclear Dipole Moment: [e a0]
     X:     0.0000      Y:     0.0000      Z:     0.0000

  Electronic Dipole Moment: [e a0]
     X:     0.0000      Y:     0.0000      Z:     0.0000

  Dipole Moment: [e a0]
     X:     0.0000      Y:     0.0000      Z:     0.0000     Total:     0.0000

  Dipole Moment: [D]
     X:     0.0000      Y:     0.0000      Z:     0.0000     Total:     0.0000


*** tstop() called on c4-11.compute.lan at Tue Feb  2 12:12:55 2021
Module time:
	user time   =      10.58 seconds =       0.18 minutes
	system time =       0.09 seconds =       0.00 minutes
	total time  =         11 seconds =       0.18 minutes
Total time:
	user time   =     144.47 seconds =       2.41 minutes
	system time =       1.76 seconds =       0.03 minutes
	total time  =        147 seconds =       2.45 minutes

*** tstart() called on c4-11.compute.lan
*** at Tue Feb  2 12:12:55 2021


         ------------------------------------------------------------
                                   SCF GRAD                          
                          Rob Parrish, Justin Turney,                
                       Andy Simmonett, and Alex Sokolov              
         ------------------------------------------------------------

  ==> Geometry <==

    Molecular point group: d2h
    Full point group: D_inf_h

    Geometry (in Angstrom), charge = -1, multiplicity = 4:

       Center              X                  Y                   Z               Mass       
    ------------   -----------------  -----------------  -----------------  -----------------
         S            0.000000000000     0.000000000000    -1.140494368506    31.972071174400
         S            0.000000000000     0.000000000000     1.140494368506    31.972071174400

  Nuclear repulsion =   59.390633427207014

  ==> Basis Set <==

  Basis Set: AUG-CC-PVTZ
    Blend: AUG-CC-PVTZ
    Number of shells: 32
    Number of basis function: 100
    Number of Cartesian functions: 118
    Spherical Harmonics?: true
    Max angular momentum: 3

  ==> DFJKGrad: Density-Fitted SCF Gradients <==

    Gradient:                    1
    J tasked:                  Yes
    K tasked:                  Yes
    wK tasked:                 Yes
    Omega:               2.000E-01
    OpenMP threads:              1
    Integrals threads:           1
    Memory [MiB]:             7152
    Schwarz Cutoff:          0E+00
    Fitting Condition:       1E-10

   => Auxiliary Basis Set <=

  Basis Set: (AUG-CC-PVTZ AUX)
    Blend: AUG-CC-PVTZ-JKFIT
    Number of shells: 84
    Number of basis function: 292
    Number of Cartesian functions: 360
    Spherical Harmonics?: true
    Max angular momentum: 4

  ==> DFT Potential <==

   => Composite Functional: WB97X-D <= 

    wB97X-D Hyb-GGA Exchange-Correlation Functional

    J.-D. Chai and M. Head-Gordon, Phys. Chem. Chem. Phys. 10, 6615 (2008)

    Deriv               =              1
    GGA                 =           TRUE
    Meta                =          FALSE

    Exchange Hybrid     =           TRUE
    MP2 Hybrid          =          FALSE

   => Exchange-Correlation Functionals <=

    1.0000   wB97D range-separated functional

   => Exact (HF) Exchange <=

    0.7780            HF,LR [omega = 0.2000]
    0.2220               HF 

   => Molecular Quadrature <=

    Radial Scheme          =       TREUTLER
    Pruning Scheme         =           NONE
    Nuclear Scheme         =       TREUTLER

    BS radius alpha        =              1
    Pruning alpha          =              1
    Radial Points          =             99
    Spherical Points       =            590
    Total Points           =         113422
    Total Blocks           =            984
    Max Points             =            254
    Max Functions          =            100
    Weights Tolerance      =       1.00E-15


  -Total Gradient:
     Atom            X                  Y                   Z
    ------   -----------------  -----------------  -----------------
       1        0.000000000000     0.000000000000     0.000075920586
       2       -0.000000000000    -0.000000000000    -0.000075920586


*** tstop() called on c4-11.compute.lan at Tue Feb  2 12:12:59 2021
Module time:
	user time   =       4.13 seconds =       0.07 minutes
	system time =       0.03 seconds =       0.00 minutes
	total time  =          4 seconds =       0.07 minutes
Total time:
	user time   =     148.61 seconds =       2.48 minutes
	system time =       1.79 seconds =       0.03 minutes
	total time  =        151 seconds =       2.52 minutes

         ----------------------------------------------------------
                                   FINDIF
                     R. A. King and Jonathon Misiewicz
         ---------------------------------------------------------

  Computing second-derivative from gradients using projected, 
  symmetry-adapted, cartesian coordinates.

  3 gradients passed in, including the reference geometry.
  Generating complete list of displacements from unique ones.


-------------------------------------------------------------


  ==> Harmonic Vibrational Analysis <==

  non-mass-weighted Hessian:       Symmetric? True   Hermitian? True   Lin Dep Dim?  5 (0)
  projection of translations (True) and rotations (True) removed 5 degrees of freedom (5)
  total projector:                 Symmetric? True   Hermitian? True   Lin Dep Dim?  5 (5)
  mass-weighted Hessian:           Symmetric? True   Hermitian? True   Lin Dep Dim?  5 (0)
  pre-proj  low-frequency mode:    0.0000  [cm^-1]
  pre-proj  low-frequency mode:    0.0000  [cm^-1]
  pre-proj  low-frequency mode:    0.0000  [cm^-1]
  pre-proj  low-frequency mode:    0.0000  [cm^-1]
  pre-proj  low-frequency mode:    0.0000  [cm^-1]
  pre-proj  all modes:['0.0000' '0.0000' '0.0000' '0.0000' '0.0000' '316.7792']
  projected mass-weighted Hessian: Symmetric? True   Hermitian? True   Lin Dep Dim?  5 (5)
  post-proj low-frequency mode:    0.0000  [cm^-1] (TR)
  post-proj low-frequency mode:    0.0000  [cm^-1] (TR)
  post-proj low-frequency mode:    0.0000  [cm^-1] (TR)
  post-proj low-frequency mode:    0.0000  [cm^-1] (TR)
  post-proj low-frequency mode:    0.0000  [cm^-1] (TR)
  post-proj  all modes:['0.0000' '0.0000' '0.0000' '0.0000' '0.0000' '316.7792']

  Vibration                       6           
  Freq [cm^-1]                 316.7792       
  Irrep                           Ag          
  Reduced mass [u]             31.9721        
  Force const [mDyne/A]         1.8903        
  Turning point v=0 [a0]        0.1090        
  RMS dev v=0 [a0 u^1/2]        0.4359        
  Char temp [K]                455.7747       
  ----------------------------------------------------------------------------------
      1   S                0.00  0.00  0.71   
      2   S                0.00  0.00 -0.71   

  ==> Thermochemistry Components <==

  Entropy, S
    Electronic S            2.755 [cal/(mol K)]       11.526 [J/(mol K)]       0.00439013 [mEh/K] (multiplicity = 4)
    Translational S        38.385 [cal/(mol K)]      160.603 [J/(mol K)]       0.06117054 [mEh/K] (mol. weight = 63.9441 [u], P = 101325.00 [Pa])
    Rotational S           14.382 [cal/(mol K)]       60.175 [J/(mol K)]       0.02291937 [mEh/K] (symmetry no. = 2)
    Vibrational S           1.327 [cal/(mol K)]        5.551 [J/(mol K)]       0.00211419 [mEh/K]
  Total S                  56.849 [cal/(mol K)]      237.855 [J/(mol K)]       0.09059423 [mEh/K]
  Correction S              0.000 [cal/(mol K)]        0.000 [J/(mol K)]       0.00000000 [mEh/K]

  Constant volume heat capacity, Cv
    Electronic Cv           0.000 [cal/(mol K)]        0.000 [J/(mol K)]       0.00000000 [mEh/K]
    Translational Cv        2.981 [cal/(mol K)]       12.472 [J/(mol K)]       0.00475022 [mEh/K]
    Rotational Cv           1.987 [cal/(mol K)]        8.314 [J/(mol K)]       0.00316681 [mEh/K]
    Vibrational Cv          1.642 [cal/(mol K)]        6.868 [J/(mol K)]       0.00261600 [mEh/K]
  Total Cv                  6.610 [cal/(mol K)]       27.654 [J/(mol K)]       0.01053302 [mEh/K]
  Correction Cv             0.000 [cal/(mol K)]        0.000 [J/(mol K)]       0.00000000 [mEh/K]

  Constant pressure heat capacity, Cp
    Electronic Cp           0.000 [cal/(mol K)]        0.000 [J/(mol K)]       0.00000000 [mEh/K]
    Translational Cp        4.968 [cal/(mol K)]       20.786 [J/(mol K)]       0.00791703 [mEh/K]
    Rotational Cp           1.987 [cal/(mol K)]        8.314 [J/(mol K)]       0.00316681 [mEh/K]
    Vibrational Cp          1.642 [cal/(mol K)]        6.868 [J/(mol K)]       0.00261600 [mEh/K]
  Total Cp                  8.597 [cal/(mol K)]       35.969 [J/(mol K)]       0.01369983 [mEh/K]
  Correction Cp             0.000 [cal/(mol K)]        0.000 [J/(mol K)]       0.00000000 [mEh/K]

  ==> Thermochemistry Energy Analysis <==

  Raw electronic energy, E0
  Total E0, Electronic energy at well bottom at 0 [K]                 -796.36803819 [Eh]

  Zero-point energy, ZPE_vib = Sum_i nu_i / 2
    Electronic ZPE          0.000 [kcal/mol]        0.000 [kJ/mol]       0.00000000 [Eh]
    Translational ZPE       0.000 [kcal/mol]        0.000 [kJ/mol]       0.00000000 [Eh]
    Rotational ZPE          0.000 [kcal/mol]        0.000 [kJ/mol]       0.00000000 [Eh]
    Vibrational ZPE         0.453 [kcal/mol]        1.895 [kJ/mol]       0.00072168 [Eh]         158.390 [cm^-1]
  Correction ZPE            0.453 [kcal/mol]        1.895 [kJ/mol]       0.00072168 [Eh]         158.390 [cm^-1]
  Total ZPE, Electronic energy at 0 [K]                               -796.36731651 [Eh]

  Thermal Energy, E (includes ZPE)
    Electronic E            0.000 [kcal/mol]        0.000 [kJ/mol]       0.00000000 [Eh]
    Translational E         0.889 [kcal/mol]        3.718 [kJ/mol]       0.00141628 [Eh]
    Rotational E            0.592 [kcal/mol]        2.479 [kJ/mol]       0.00094418 [Eh]
    Vibrational E           0.704 [kcal/mol]        2.944 [kJ/mol]       0.00112127 [Eh]
  Correction E              2.185 [kcal/mol]        9.141 [kJ/mol]       0.00348173 [Eh]
  Total E, Electronic energy at  298.15 [K]                           -796.36455646 [Eh]

  Enthalpy, H_trans = E_trans + k_B * T
    Electronic H            0.000 [kcal/mol]        0.000 [kJ/mol]       0.00000000 [Eh]
    Translational H         1.481 [kcal/mol]        6.197 [kJ/mol]       0.00236046 [Eh]
    Rotational H            0.592 [kcal/mol]        2.479 [kJ/mol]       0.00094418 [Eh]
    Vibrational H           0.704 [kcal/mol]        2.944 [kJ/mol]       0.00112127 [Eh]
  Correction H              2.777 [kcal/mol]       11.620 [kJ/mol]       0.00442591 [Eh]
  Total H, Enthalpy at  298.15 [K]                                    -796.36361227 [Eh]

  Gibbs free energy, G = H - T * S
    Electronic G           -0.821 [kcal/mol]       -3.437 [kJ/mol]      -0.00130892 [Eh]
    Translational G        -9.963 [kcal/mol]      -41.686 [kJ/mol]      -0.01587754 [Eh]
    Rotational G           -3.696 [kcal/mol]      -15.462 [kJ/mol]      -0.00588922 [Eh]
    Vibrational G           0.308 [kcal/mol]        1.289 [kJ/mol]       0.00049092 [Eh]
  Correction G            -14.172 [kcal/mol]      -59.296 [kJ/mol]      -0.02258476 [Eh]
  Total G, Free enthalpy at  298.15 [K]                               -796.39062294 [Eh]

    Psi4 stopped on: Tuesday, 02 February 2021 12:12PM
    Psi4 wall time for execution: 0:02:31.20

*** Psi4 exiting successfully. Buy a developer a beer!
