
    -----------------------------------------------------------------------
          Psi4: An Open-Source Ab Initio Electronic Structure Package
                               Psi4 1.4a2.dev191 

                         Git: Rev {master} 0ab5346 


    R. M. Parrish, L. A. Burns, D. G. A. Smith, A. C. Simmonett,
    A. E. DePrince III, E. G. Hohenstein, U. Bozkaya, A. Yu. Sokolov,
    R. Di Remigio, R. M. Richard, J. F. Gonthier, A. M. James,
    H. R. McAlexander, A. Kumar, M. Saitow, X. Wang, B. P. Pritchard,
    P. Verma, H. F. Schaefer III, K. Patkowski, R. A. King, E. F. Valeev,
    F. A. Evangelista, J. M. Turney, T. D. Crawford, and C. D. Sherrill,
    J. Chem. Theory Comput. 13(7) pp 3185--3197 (2017).
    (doi: 10.1021/acs.jctc.7b00174)


                         Additional Contributions by
    P. Kraus, H. Kruse, M. H. Lechner, M. C. Schieber, R. A. Shaw,
    A. Alenaizan, R. Galvelis, Z. L. Glick, S. Lehtola, and J. P. Misiewicz

    -----------------------------------------------------------------------


    Psi4 started on: Tuesday, 02 February 2021 11:28AM

    Process ID: 11188
    Host:       c1-9.compute.lan
    PSIDATADIR: /apps/gb/PSI4/1.4.0/share/psi4
    Memory:     500.0 MiB
    Threads:    1
    
  ==> Input File <==

--------------------------------------------------------------------------
memory 10 GB

molecule  {
0 1
S
S 1 r1
r1 = 2.0
}

set {
reference uks
basis aug-cc-pvtz
g_convergence gau_verytight
dft_spherical_points 590
dft_radial_points 99
}

optimize('wb97x-d')
frequencies('wb97x-d')

--------------------------------------------------------------------------

  Memory set to   9.313 GiB by Python driver.
gradient() will perform analytic gradient computation.

*** tstart() called on c1-9.compute.lan
*** at Tue Feb  2 11:28:41 2021

   => Loading Basis Set <=

    Name: AUG-CC-PVTZ
    Role: ORBITAL
    Keyword: BASIS
    atoms 1-2 entry S          line   906 file /apps/gb/PSI4/1.4.0/share/psi4/basis/aug-cc-pvtz.gbs 

   => WB97X-D: Empirical Dispersion <=

    Chai and Head-Gordon Dispersion Correction
    Chai, J.-D.; Head-Gordon, M. (2010), J. Chem. Phys., 132: 6615-6620

        s6 =       1.000000


         ---------------------------------------------------------
                                   SCF
               by Justin Turney, Rob Parrish, Andy Simmonett
                          and Daniel G. A. Smith
                              UKS Reference
                        1 Threads,   9536 MiB Core
         ---------------------------------------------------------

  ==> Geometry <==

    Molecular point group: d2h
    Full point group: D_inf_h

    Geometry (in Angstrom), charge = 0, multiplicity = 1:

       Center              X                  Y                   Z               Mass       
    ------------   -----------------  -----------------  -----------------  -----------------
         S            0.000000000000     0.000000000000    -1.000000000000    31.972071174400
         S            0.000000000000     0.000000000000     1.000000000000    31.972071174400

  Running in d2h symmetry.

  Rotational constants: A = ************  B =      0.26363  C =      0.26363 [cm^-1]
  Rotational constants: A = ************  B =   7903.44495  C =   7903.44495 [MHz]
  Nuclear repulsion =   67.734682965759930

  Charge       = 0
  Multiplicity = 1
  Electrons    = 32
  Nalpha       = 16
  Nbeta        = 16

  ==> Algorithm <==

  SCF Algorithm Type is DF.
  DIIS enabled.
  MOM disabled.
  Fractional occupation disabled.
  Guess Type is SAD.
  Energy threshold   = 1.00e-08
  Density threshold  = 1.00e-08
  Integral threshold = 0.00e+00

  ==> Primary Basis <==

  Basis Set: AUG-CC-PVTZ
    Blend: AUG-CC-PVTZ
    Number of shells: 32
    Number of basis function: 100
    Number of Cartesian functions: 118
    Spherical Harmonics?: true
    Max angular momentum: 3

  ==> DFT Potential <==

   => Composite Functional: WB97X-D <= 

    wB97X-D Hyb-GGA Exchange-Correlation Functional

    J.-D. Chai and M. Head-Gordon, Phys. Chem. Chem. Phys. 10, 6615 (2008)

    Deriv               =              1
    GGA                 =           TRUE
    Meta                =          FALSE

    Exchange Hybrid     =           TRUE
    MP2 Hybrid          =          FALSE

   => Exchange-Correlation Functionals <=

    1.0000   wB97D range-separated functional

   => Exact (HF) Exchange <=

    0.7780            HF,LR [omega = 0.2000]
    0.2220               HF 

   => Molecular Quadrature <=

    Radial Scheme          =       TREUTLER
    Pruning Scheme         =           NONE
    Nuclear Scheme         =       TREUTLER

    BS radius alpha        =              1
    Pruning alpha          =              1
    Radial Points          =             99
    Spherical Points       =            590
    Total Points           =         113384
    Total Blocks           =            986
    Max Points             =            255
    Max Functions          =            100
    Weights Tolerance      =       1.00E-15

   => Loading Basis Set <=

    Name: (AUG-CC-PVTZ AUX)
    Role: JKFIT
    Keyword: DF_BASIS_SCF
    atoms 1-2 entry S          line   730 file /apps/gb/PSI4/1.4.0/share/psi4/basis/aug-cc-pvtz-jkfit.gbs 

  ==> Pre-Iterations <==

   -------------------------------------------------------
    Irrep   Nso     Nmo     Nalpha   Nbeta   Ndocc  Nsocc
   -------------------------------------------------------
     Ag        21      21       0       0       0       0
     B1g        5       5       0       0       0       0
     B2g       12      12       0       0       0       0
     B3g       12      12       0       0       0       0
     Au         5       5       0       0       0       0
     B1u       21      21       0       0       0       0
     B2u       12      12       0       0       0       0
     B3u       12      12       0       0       0       0
   -------------------------------------------------------
    Total     100     100      16      16      16       0
   -------------------------------------------------------

  ==> Integral Setup <==

  ==> DiskDFJK: Density-Fitted J/K Matrices <==

    J tasked:                  Yes
    K tasked:                  Yes
    wK tasked:                 Yes
    Omega:               2.000E-01
    OpenMP threads:              1
    Integrals threads:           1
    Memory [MiB]:             6842
    Algorithm:                Core
    Integral Cache:           NONE
    Schwarz Cutoff:          1E-12
    Fitting Condition:       1E-10

   => Auxiliary Basis Set <=

  Basis Set: (AUG-CC-PVTZ AUX)
    Blend: AUG-CC-PVTZ-JKFIT
    Number of shells: 84
    Number of basis function: 292
    Number of Cartesian functions: 360
    Spherical Harmonics?: true
    Max angular momentum: 4

  Cached 100.0% of DFT collocation blocks in 0.303 [GiB].

  Minimum eigenvalue in the overlap matrix is 2.7190206739E-04.
  Using Symmetric Orthogonalization.

  SCF Guess: Superposition of Atomic Densities via on-the-fly atomic UHF.

  ==> Iterations <==

                           Total Energy        Delta E     RMS |[F,P]|

   @DF-UKS iter SAD:  -795.91936976525903   -7.95919e+02   0.00000e+00 
   @DF-UKS iter   1:  -796.33441381656917   -4.15044e-01   6.05905e-03 DIIS
   @DF-UKS iter   2:  -796.34964156266722   -1.52277e-02   2.09570e-03 DIIS
   @DF-UKS iter   3:  -796.35111626887488   -1.47471e-03   1.41022e-04 DIIS
   @DF-UKS iter   4:  -796.35116245274719   -4.61839e-05   4.03651e-05 DIIS
   @DF-UKS iter   5:  -796.35116523072384   -2.77798e-06   1.74141e-05 DIIS
   @DF-UKS iter   6:  -796.35116560917720   -3.78453e-07   1.67565e-06 DIIS
   @DF-UKS iter   7:  -796.35116561473046   -5.55326e-09   1.41810e-07 DIIS
   @DF-UKS iter   8:  -796.35116561478981   -5.93445e-11   2.35689e-08 DIIS
   @DF-UKS iter   9:  -796.35116561479083   -1.02318e-12   3.13463e-09 DIIS
  Energy and wave function converged.


  ==> Post-Iterations <==

   @Spin Contamination Metric:  -1.065814104E-14
   @S^2 Expected:                0.000000000E+00
   @S^2 Observed:               -1.065814104E-14
   @S   Expected:                0.000000000E+00
   @S   Observed:                0.000000000E+00

    Orbital Energies [Eh]
    ---------------------

    Alpha Occupied:                                                       

       1B1u  -89.121181     1Ag   -89.121174     2Ag    -8.124902  
       2B1u   -8.124783     1B2u   -6.075951     1B3g   -6.075918  
       3Ag    -6.073147     3B1u   -6.072740     1B3u   -6.062536  
       1B2g   -6.062510     4Ag    -0.906005     4B1u   -0.715359  
       5Ag    -0.469371     2B2u   -0.429209     2B3u   -0.429003  
       2B2g   -0.305841  

    Alpha Virtual:                                                        

       2B3g   -0.121647     5B1u    0.026724     6B1u    0.084158  
       6Ag     0.085411     3B2u    0.090642     3B3u    0.097426  
       7Ag     0.104481     3B3g    0.118272     3B2g    0.122183  
       1B1g    0.193018     8Ag     0.194161     7B1u    0.207808  
       4B2u    0.235930     4B3u    0.242070     9Ag     0.288422  
       1Au     0.301239     8B1u    0.302390     9B1u    0.364474  
       4B3g    0.370620     4B2g    0.374117     5B2u    0.450632  
       5B3u    0.465686     6B2u    0.548625     6B3u    0.561225  
      10Ag     0.565679    10B1u    0.568458     5B3g    0.570370  
      11Ag     0.572803     2B1g    0.579035     5B2g    0.581889  
      12Ag     0.584104    13Ag     0.647406     2Au     0.660000  
      11B1u    0.660865     7B3u    0.708168     7B2u    0.708286  
       6B3g    0.724932     6B2g    0.739471     3B1g    0.769177  
      14Ag     0.771153    12B1u    0.838117     7B2g    0.852108  
       7B3g    0.852299     8B2u    1.001394     8B3u    1.015249  
      13B1u    1.042273     3Au     1.045996    14B1u    1.059513  
       8B3g    1.207060     8B2g    1.219881    15Ag     1.279552  
      15B1u    1.448047     4B1g    1.771829    16Ag     1.772466  
       9B2u    1.822396    16B1u    1.823228     9B3u    1.843798  
       4Au     1.845958    17B1u    1.849472    17Ag     1.946884  
       9B3g    1.952608     9B2g    1.975242    10B2u    2.006496  
      10B3u    2.024645    18Ag     2.053093     5B1g    2.054646  
      19Ag     2.064046    11B2u    2.067067    11B3u    2.087471  
      12B2u    2.105776    12B3u    2.106092    10B2g    2.166148  
      10B3g    2.166434    11B3g    2.293278    18B1u    2.294613  
       5Au     2.294645    11B2g    2.312178    19B1u    2.415508  
      20Ag     2.498098    12B3g    2.590531    12B2g    2.612464  
      20B1u    3.650843    21Ag     4.452361    21B1u    5.277211  

    Beta Occupied:                                                        

       1B1u  -89.121181     1Ag   -89.121174     2Ag    -8.124902  
       2B1u   -8.124783     1B2u   -6.075951     1B3g   -6.075918  
       3Ag    -6.073147     3B1u   -6.072740     1B3u   -6.062536  
       1B2g   -6.062510     4Ag    -0.906005     4B1u   -0.715359  
       5Ag    -0.469371     2B2u   -0.429209     2B3u   -0.429003  
       2B2g   -0.305841  

    Beta Virtual:                                                         

       2B3g   -0.121647     5B1u    0.026724     6B1u    0.084158  
       6Ag     0.085411     3B2u    0.090642     3B3u    0.097426  
       7Ag     0.104481     3B3g    0.118272     3B2g    0.122183  
       1B1g    0.193018     8Ag     0.194161     7B1u    0.207808  
       4B2u    0.235930     4B3u    0.242070     9Ag     0.288422  
       1Au     0.301239     8B1u    0.302390     9B1u    0.364474  
       4B3g    0.370620     4B2g    0.374117     5B2u    0.450632  
       5B3u    0.465686     6B2u    0.548625     6B3u    0.561225  
      10Ag     0.565679    10B1u    0.568458     5B3g    0.570370  
      11Ag     0.572803     2B1g    0.579035     5B2g    0.581889  
      12Ag     0.584104    13Ag     0.647406     2Au     0.660000  
      11B1u    0.660865     7B3u    0.708168     7B2u    0.708286  
       6B3g    0.724932     6B2g    0.739471     3B1g    0.769177  
      14Ag     0.771153    12B1u    0.838117     7B2g    0.852108  
       7B3g    0.852299     8B2u    1.001394     8B3u    1.015249  
      13B1u    1.042273     3Au     1.045996    14B1u    1.059513  
       8B3g    1.207060     8B2g    1.219881    15Ag     1.279552  
      15B1u    1.448047     4B1g    1.771829    16Ag     1.772466  
       9B2u    1.822396    16B1u    1.823228     9B3u    1.843798  
       4Au     1.845958    17B1u    1.849472    17Ag     1.946884  
       9B3g    1.952608     9B2g    1.975242    10B2u    2.006496  
      10B3u    2.024645    18Ag     2.053093     5B1g    2.054646  
      19Ag     2.064046    11B2u    2.067067    11B3u    2.087471  
      12B2u    2.105776    12B3u    2.106092    10B2g    2.166148  
      10B3g    2.166434    11B3g    2.293278    18B1u    2.294613  
       5Au     2.294645    11B2g    2.312178    19B1u    2.415508  
      20Ag     2.498098    12B3g    2.590531    12B2g    2.612464  
      20B1u    3.650843    21Ag     4.452361    21B1u    5.277211  

    Final Occupation by Irrep:
             Ag   B1g   B2g   B3g    Au   B1u   B2u   B3u 
    DOCC [     5,    0,    2,    1,    0,    4,    2,    2 ]
    SOCC [     0,    0,    0,    0,    0,    0,    0,    0 ]

  @DF-UKS Final Energy:  -796.35116561479083

   => Energetics <=

    Nuclear Repulsion Energy =             67.7346829657599301
    One-Electron Energy =               -1234.0627738640991993
    Two-Electron Energy =                 407.4142709953399617
    DFT Exchange-Correlation Energy =     -37.4373350172482944
    Empirical Dispersion Energy =          -0.0000106945433699
    VV10 Nonlocal Energy =                  0.0000000000000000
    Total Energy =                       -796.3511656147909434

  UHF NO Occupations:
  HONO-2 :    2B2g 2.0000000
  HONO-1 :    4 Ag 2.0000000
  HONO-0 :    5 Ag 2.0000000
  LUNO+0 :    6 Ag 0.0000000
  LUNO+1 :    5B1u 0.0000000
  LUNO+2 :    6B1u 0.0000000
  LUNO+3 :    7 Ag 0.0000000


Computation Completed


Properties will be evaluated at   0.000000,   0.000000,   0.000000 [a0]

Properties computed using the SCF density matrix

  Nuclear Dipole Moment: [e a0]
     X:     0.0000      Y:     0.0000      Z:     0.0000

  Electronic Dipole Moment: [e a0]
     X:     0.0000      Y:     0.0000      Z:     0.0000

  Dipole Moment: [e a0]
     X:     0.0000      Y:     0.0000      Z:     0.0000     Total:     0.0000

  Dipole Moment: [D]
     X:     0.0000      Y:     0.0000      Z:     0.0000     Total:     0.0000


*** tstop() called on c1-9.compute.lan at Tue Feb  2 11:28:51 2021
Module time:
	user time   =       9.14 seconds =       0.15 minutes
	system time =       0.34 seconds =       0.01 minutes
	total time  =         10 seconds =       0.17 minutes
Total time:
	user time   =       9.14 seconds =       0.15 minutes
	system time =       0.34 seconds =       0.01 minutes
	total time  =         10 seconds =       0.17 minutes

*** tstart() called on c1-9.compute.lan
*** at Tue Feb  2 11:28:51 2021


         ------------------------------------------------------------
                                   SCF GRAD                          
                          Rob Parrish, Justin Turney,                
                       Andy Simmonett, and Alex Sokolov              
         ------------------------------------------------------------

  ==> Geometry <==

    Molecular point group: d2h
    Full point group: D_inf_h

    Geometry (in Angstrom), charge = 0, multiplicity = 1:

       Center              X                  Y                   Z               Mass       
    ------------   -----------------  -----------------  -----------------  -----------------
         S            0.000000000000     0.000000000000    -1.000000000000    31.972071174400
         S            0.000000000000     0.000000000000     1.000000000000    31.972071174400

  Nuclear repulsion =   67.734682965759930

  ==> Basis Set <==

  Basis Set: AUG-CC-PVTZ
    Blend: AUG-CC-PVTZ
    Number of shells: 32
    Number of basis function: 100
    Number of Cartesian functions: 118
    Spherical Harmonics?: true
    Max angular momentum: 3

  ==> DFJKGrad: Density-Fitted SCF Gradients <==

    Gradient:                    1
    J tasked:                  Yes
    K tasked:                  Yes
    wK tasked:                 Yes
    Omega:               2.000E-01
    OpenMP threads:              1
    Integrals threads:           1
    Memory [MiB]:             7152
    Schwarz Cutoff:          0E+00
    Fitting Condition:       1E-10

   => Auxiliary Basis Set <=

  Basis Set: (AUG-CC-PVTZ AUX)
    Blend: AUG-CC-PVTZ-JKFIT
    Number of shells: 84
    Number of basis function: 292
    Number of Cartesian functions: 360
    Spherical Harmonics?: true
    Max angular momentum: 4

  ==> DFT Potential <==

   => Composite Functional: WB97X-D <= 

    wB97X-D Hyb-GGA Exchange-Correlation Functional

    J.-D. Chai and M. Head-Gordon, Phys. Chem. Chem. Phys. 10, 6615 (2008)

    Deriv               =              1
    GGA                 =           TRUE
    Meta                =          FALSE

    Exchange Hybrid     =           TRUE
    MP2 Hybrid          =          FALSE

   => Exchange-Correlation Functionals <=

    1.0000   wB97D range-separated functional

   => Exact (HF) Exchange <=

    0.7780            HF,LR [omega = 0.2000]
    0.2220               HF 

   => Molecular Quadrature <=

    Radial Scheme          =       TREUTLER
    Pruning Scheme         =           NONE
    Nuclear Scheme         =       TREUTLER

    BS radius alpha        =              1
    Pruning alpha          =              1
    Radial Points          =             99
    Spherical Points       =            590
    Total Points           =         113384
    Total Blocks           =            986
    Max Points             =            255
    Max Functions          =            100
    Weights Tolerance      =       1.00E-15


  -Total Gradient:
     Atom            X                  Y                   Z
    ------   -----------------  -----------------  -----------------
       1        0.000000000000     0.000000000000    -0.052919847509
       2        0.000000000000     0.000000000000     0.052919847509


*** tstop() called on c1-9.compute.lan at Tue Feb  2 11:28:55 2021
Module time:
	user time   =       4.06 seconds =       0.07 minutes
	system time =       0.06 seconds =       0.00 minutes
	total time  =          4 seconds =       0.07 minutes
Total time:
	user time   =      13.20 seconds =       0.22 minutes
	system time =       0.40 seconds =       0.01 minutes
	total time  =         14 seconds =       0.23 minutes

			-----------------------------------------
			 OPTKING 2.0: for geometry optimizations 
			  - R.A. King,  Bethel University        
			-----------------------------------------

	Internal coordinates to be generated automatically.
	Detected frag 1 with atoms:  1 2
	---Fragment 1 Bond Connectivity---
	 1 : 2
	 2 : 1

	---Fragment 1 Geometry and Gradient---
	 S           0.0000000000        0.0000000000       -1.8897261255
	 S           0.0000000000        0.0000000000        1.8897261255
	             0.0000000000        0.0000000000       -0.0529198475
	             0.0000000000        0.0000000000        0.0529198475

	Previous optimization step data not found.  Starting new optimization.

	---Fragment 1 Intrafragment Coordinates---
	 - Coordinate -           - BOHR/RAD -       - ANG/DEG -
	 R(1,2)           =         3.779452	       2.000000

	Current energy   :      -796.3511656148

	Generating empirical Hessian (Schlegel '84) for each fragment.
	Taking RFO optimization step.
	Going to follow RFO solution 1.
	Using RFO vector 1.
	Norm of target step-size    0.14957
	Projected energy change by RFO approximation:         0.0031986048

	Back-transformation to cartesian coordinates...
	Successfully converged to displaced geometry.

	--- Internal Coordinate Step in ANG or DEG, aJ/ANG or AJ/DEG ---
	 ---------------------------------------------------------------------------
	   Coordinate                Previous        Force       Change         New 
	   ----------                --------       ------       ------       ------
	    1 R(1,2)          =      2.000000    -0.435992    -0.079148     1.920852
	 ---------------------------------------------------------------------------
	Successfully symmetrized geometry.

  ==> Convergence Check <==

  Measures of convergence in internal coordinates in au.
  Criteria marked as inactive (o), active & met (*), and active & unmet ( ).
  --------------------------------------------------------------------------------------------- ~
   Step     Total Energy     Delta E     MAX Force     RMS Force      MAX Disp      RMS Disp    ~
  --------------------------------------------------------------------------------------------- ~
    Convergence Criteria             o    2.00e-06 *    1.00e-06 *    6.00e-06 *    4.00e-06 *  ~
  --------------------------------------------------------------------------------------------- ~
      1    -796.35116561   -7.96e+02 o    5.29e-02      5.29e-02      1.50e-01      1.50e-01    ~
  ---------------------------------------------------------------------------------------------

	Writing optimization data to binary file.
	Structure for next step:
	Cartesian Geometry (in Angstrom)
	    S     0.0000000000   0.0000000000  -0.9604260578
	    S     0.0000000000   0.0000000000   0.9604260578
			--------------------------
			 OPTKING Finished Execution 
			--------------------------

    Structure for next step:
    Molecular point group: d2h
    Full point group: D_inf_h

    Geometry (in Angstrom), charge = 0, multiplicity = 1:

    S       
    S             1          r1

    r1        =    1.9208521232

gradient() will perform analytic gradient computation.

*** tstart() called on c1-9.compute.lan
*** at Tue Feb  2 11:28:55 2021

   => Loading Basis Set <=

    Name: AUG-CC-PVTZ
    Role: ORBITAL
    Keyword: BASIS
    atoms 1-2 entry S          line   906 file /apps/gb/PSI4/1.4.0/share/psi4/basis/aug-cc-pvtz.gbs 

   => WB97X-D: Empirical Dispersion <=

    Chai and Head-Gordon Dispersion Correction
    Chai, J.-D.; Head-Gordon, M. (2010), J. Chem. Phys., 132: 6615-6620

        s6 =       1.000000


         ---------------------------------------------------------
                                   SCF
               by Justin Turney, Rob Parrish, Andy Simmonett
                          and Daniel G. A. Smith
                              UKS Reference
                        1 Threads,   9536 MiB Core
         ---------------------------------------------------------

  ==> Geometry <==

    Molecular point group: d2h
    Full point group: D_inf_h

    Geometry (in Angstrom), charge = 0, multiplicity = 1:

       Center              X                  Y                   Z               Mass       
    ------------   -----------------  -----------------  -----------------  -----------------
         S            0.000000000000     0.000000000000    -0.960426061594    31.972071174400
         S            0.000000000000     0.000000000000     0.960426061594    31.972071174400

  Running in d2h symmetry.

  Rotational constants: A = ************  B =      0.28580  C =      0.28580 [cm^-1]
  Rotational constants: A = ************  B =   8568.17957  C =   8568.17957 [MHz]
  Nuclear repulsion =   70.525661135580506

  Charge       = 0
  Multiplicity = 1
  Electrons    = 32
  Nalpha       = 16
  Nbeta        = 16

  ==> Algorithm <==

  SCF Algorithm Type is DF.
  DIIS enabled.
  MOM disabled.
  Fractional occupation disabled.
  Guess Type is READ.
  Energy threshold   = 1.00e-08
  Density threshold  = 1.00e-08
  Integral threshold = 0.00e+00

  ==> Primary Basis <==

  Basis Set: AUG-CC-PVTZ
    Blend: AUG-CC-PVTZ
    Number of shells: 32
    Number of basis function: 100
    Number of Cartesian functions: 118
    Spherical Harmonics?: true
    Max angular momentum: 3

  ==> DFT Potential <==

   => Composite Functional: WB97X-D <= 

    wB97X-D Hyb-GGA Exchange-Correlation Functional

    J.-D. Chai and M. Head-Gordon, Phys. Chem. Chem. Phys. 10, 6615 (2008)

    Deriv               =              1
    GGA                 =           TRUE
    Meta                =          FALSE

    Exchange Hybrid     =           TRUE
    MP2 Hybrid          =          FALSE

   => Exchange-Correlation Functionals <=

    1.0000   wB97D range-separated functional

   => Exact (HF) Exchange <=

    0.7780            HF,LR [omega = 0.2000]
    0.2220               HF 

   => Molecular Quadrature <=

    Radial Scheme          =       TREUTLER
    Pruning Scheme         =           NONE
    Nuclear Scheme         =       TREUTLER

    BS radius alpha        =              1
    Pruning alpha          =              1
    Radial Points          =             99
    Spherical Points       =            590
    Total Points           =         113352
    Total Blocks           =            982
    Max Points             =            256
    Max Functions          =            100
    Weights Tolerance      =       1.00E-15

   => Loading Basis Set <=

    Name: (AUG-CC-PVTZ AUX)
    Role: JKFIT
    Keyword: DF_BASIS_SCF
    atoms 1-2 entry S          line   730 file /apps/gb/PSI4/1.4.0/share/psi4/basis/aug-cc-pvtz-jkfit.gbs 

   => Loading Basis Set <=

    Name: AUG-CC-PVTZ
    Role: ORBITAL
    Keyword: BASIS
    atoms 1-2 entry S          line   906 file /apps/gb/PSI4/1.4.0/share/psi4/basis/aug-cc-pvtz.gbs 

  Reading orbitals from file 180, no projection.

  ==> Pre-Iterations <==

   -------------------------------------------------------
    Irrep   Nso     Nmo     Nalpha   Nbeta   Ndocc  Nsocc
   -------------------------------------------------------
     Ag        21      21       0       0       0       0
     B1g        5       5       0       0       0       0
     B2g       12      12       0       0       0       0
     B3g       12      12       0       0       0       0
     Au         5       5       0       0       0       0
     B1u       21      21       0       0       0       0
     B2u       12      12       0       0       0       0
     B3u       12      12       0       0       0       0
   -------------------------------------------------------
    Total     100     100      16      16      16       0
   -------------------------------------------------------

  ==> Integral Setup <==

  ==> DiskDFJK: Density-Fitted J/K Matrices <==

    J tasked:                  Yes
    K tasked:                  Yes
    wK tasked:                 Yes
    Omega:               2.000E-01
    OpenMP threads:              1
    Integrals threads:           1
    Memory [MiB]:             6842
    Algorithm:                Core
    Integral Cache:           NONE
    Schwarz Cutoff:          1E-12
    Fitting Condition:       1E-10

   => Auxiliary Basis Set <=

  Basis Set: (AUG-CC-PVTZ AUX)
    Blend: AUG-CC-PVTZ-JKFIT
    Number of shells: 84
    Number of basis function: 292
    Number of Cartesian functions: 360
    Spherical Harmonics?: true
    Max angular momentum: 4

  Cached 100.0% of DFT collocation blocks in 0.303 [GiB].

  Minimum eigenvalue in the overlap matrix is 2.2623095713E-04.
  Using Symmetric Orthogonalization.

  SCF Guess: Orbitals guess was supplied from a previous computation.

  ==> Iterations <==

                           Total Energy        Delta E     RMS |[F,P]|

   @DF-UKS iter   0:  -796.39039535928919   -7.96390e+02   5.23193e-03 
   @DF-UKS iter   1:  -796.35602346481005    3.43719e-02   7.17368e-04 DIIS
   @DF-UKS iter   2:  -796.35636045165165   -3.36987e-04   4.72101e-04 DIIS
   @DF-UKS iter   3:  -796.35654005744050   -1.79606e-04   2.82530e-05 DIIS
   @DF-UKS iter   4:  -796.35654110288010   -1.04544e-06   7.46857e-06 DIIS
   @DF-UKS iter   5:  -796.35654118166462   -7.87845e-08   9.98649e-07 DIIS
   @DF-UKS iter   6:  -796.35654118330649   -1.64187e-09   1.04055e-07 DIIS
   @DF-UKS iter   7:  -796.35654118333878   -3.22871e-11   1.97472e-08 DIIS
   @DF-UKS iter   8:  -796.35654118334014   -1.36424e-12   2.58553e-09 DIIS
  Energy and wave function converged.


  ==> Post-Iterations <==

   @Spin Contamination Metric:   2.664535259E-14
   @S^2 Expected:                0.000000000E+00
   @S^2 Observed:                2.664535259E-14
   @S   Expected:                0.000000000E+00
   @S   Observed:                0.000000000E+00

    Orbital Energies [Eh]
    ---------------------

    Alpha Occupied:                                                       

       1B1u  -89.115498     1Ag   -89.115492     2Ag    -8.121124  
       2B1u   -8.120939     1B2u   -6.072100     1B3g   -6.072043  
       3Ag    -6.069156     3B1u   -6.068477     1B3u   -6.058742  
       1B2g   -6.058693     4Ag    -0.925144     4B1u   -0.706624  
       5Ag    -0.474080     2B2u   -0.440025     2B3u   -0.437949  
       2B2g   -0.297748  

    Alpha Virtual:                                                        

       2B3g   -0.112857     5B1u    0.040007     6Ag     0.085610  
       3B2u    0.089687     6B1u    0.095342     3B3u    0.096510  
       7Ag     0.103442     3B3g    0.118618     3B2g    0.122516  
       1B1g    0.191405     8Ag     0.192571     7B1u    0.209724  
       4B2u    0.240179     4B3u    0.245612     9Ag     0.283448  
       1Au     0.304991     8B1u    0.306215     4B3g    0.372827  
       9B1u    0.374967     4B2g    0.376047     5B2u    0.446980  
       5B3u    0.462717     6B2u    0.548711     6B3u    0.560913  
      10Ag     0.561693    11Ag     0.563813    10B1u    0.565097  
       2B1g    0.573101     5B3g    0.574461    12Ag     0.579500  
       5B2g    0.585475     2Au     0.663813    13Ag     0.664000  
      11B1u    0.664764     7B3u    0.705211     7B2u    0.705337  
       6B3g    0.738337     6B2g    0.753015     3B1g    0.780477  
      14Ag     0.782621     7B2g    0.858671     7B3g    0.858884  
      12B1u    0.867938     8B2u    1.017709     8B3u    1.031183  
      13B1u    1.058853     3Au     1.059053    14B1u    1.092174  
       8B3g    1.218906     8B2g    1.232042    15Ag     1.308371  
      15B1u    1.445339     4B1g    1.774241    16Ag     1.774932  
       9B2u    1.805024    16B1u    1.813982     9B3u    1.826182  
       4Au     1.851808    17B1u    1.854706    17Ag     1.928445  
       9B3g    1.940649     9B2g    1.963313    10B2u    2.027475  
      18Ag     2.029822     5B1g    2.030103    19Ag     2.042610  
      10B3u    2.047310    11B2u    2.074360    11B3u    2.094127  
      12B2u    2.101084    12B3u    2.101516    10B2g    2.171732  
      10B3g    2.172018     5Au     2.324356    18B1u    2.324540  
      11B3g    2.342127    11B2g    2.360999    19B1u    2.461688  
      20Ag     2.634664    12B3g    2.646191    12B2g    2.668623  
      20B1u    3.658865    21Ag     4.587438    21B1u    5.345040  

    Beta Occupied:                                                        

       1B1u  -89.115498     1Ag   -89.115492     2Ag    -8.121124  
       2B1u   -8.120939     1B2u   -6.072100     1B3g   -6.072043  
       3Ag    -6.069156     3B1u   -6.068477     1B3u   -6.058742  
       1B2g   -6.058693     4Ag    -0.925144     4B1u   -0.706624  
       5Ag    -0.474080     2B2u   -0.440025     2B3u   -0.437949  
       2B2g   -0.297748  

    Beta Virtual:                                                         

       2B3g   -0.112857     5B1u    0.040007     6Ag     0.085610  
       3B2u    0.089687     6B1u    0.095342     3B3u    0.096510  
       7Ag     0.103442     3B3g    0.118618     3B2g    0.122516  
       1B1g    0.191405     8Ag     0.192571     7B1u    0.209724  
       4B2u    0.240179     4B3u    0.245612     9Ag     0.283448  
       1Au     0.304991     8B1u    0.306215     4B3g    0.372827  
       9B1u    0.374967     4B2g    0.376047     5B2u    0.446980  
       5B3u    0.462717     6B2u    0.548711     6B3u    0.560913  
      10Ag     0.561693    11Ag     0.563813    10B1u    0.565097  
       2B1g    0.573101     5B3g    0.574461    12Ag     0.579500  
       5B2g    0.585475     2Au     0.663813    13Ag     0.664000  
      11B1u    0.664764     7B3u    0.705211     7B2u    0.705337  
       6B3g    0.738337     6B2g    0.753015     3B1g    0.780477  
      14Ag     0.782621     7B2g    0.858671     7B3g    0.858884  
      12B1u    0.867938     8B2u    1.017709     8B3u    1.031183  
      13B1u    1.058853     3Au     1.059053    14B1u    1.092174  
       8B3g    1.218906     8B2g    1.232042    15Ag     1.308371  
      15B1u    1.445339     4B1g    1.774241    16Ag     1.774932  
       9B2u    1.805024    16B1u    1.813982     9B3u    1.826182  
       4Au     1.851808    17B1u    1.854706    17Ag     1.928445  
       9B3g    1.940649     9B2g    1.963313    10B2u    2.027475  
      18Ag     2.029822     5B1g    2.030103    19Ag     2.042610  
      10B3u    2.047310    11B2u    2.074360    11B3u    2.094127  
      12B2u    2.101084    12B3u    2.101516    10B2g    2.171732  
      10B3g    2.172018     5Au     2.324356    18B1u    2.324540  
      11B3g    2.342127    11B2g    2.360999    19B1u    2.461688  
      20Ag     2.634664    12B3g    2.646191    12B2g    2.668623  
      20B1u    3.658865    21Ag     4.587438    21B1u    5.345040  

    Final Occupation by Irrep:
             Ag   B1g   B2g   B3g    Au   B1u   B2u   B3u 
    DOCC [     5,    0,    2,    1,    0,    4,    2,    2 ]
    SOCC [     0,    0,    0,    0,    0,    0,    0,    0 ]

  @DF-UKS Final Energy:  -796.35654118334014

   => Energetics <=

    Nuclear Repulsion Energy =             70.5256611355805063
    One-Electron Energy =               -1239.6691685012428934
    Two-Electron Energy =                 410.2513013033906759
    DFT Exchange-Correlation Energy =     -37.4643267264749156
    Empirical Dispersion Energy =          -0.0000083945935645
    VV10 Nonlocal Energy =                  0.0000000000000000
    Total Energy =                       -796.3565411833402550

  UHF NO Occupations:
  HONO-2 :    4 Ag 2.0000000
  HONO-1 :    4B1u 2.0000000
  HONO-0 :    5 Ag 2.0000000
  LUNO+0 :    6 Ag 0.0000000
  LUNO+1 :    7 Ag 0.0000000
  LUNO+2 :    3B3u 0.0000000
  LUNO+3 :    4B3u 0.0000000


Computation Completed


Properties will be evaluated at   0.000000,   0.000000,   0.000000 [a0]

Properties computed using the SCF density matrix

  Nuclear Dipole Moment: [e a0]
     X:     0.0000      Y:     0.0000      Z:     0.0000

  Electronic Dipole Moment: [e a0]
     X:     0.0000      Y:     0.0000      Z:     0.0000

  Dipole Moment: [e a0]
     X:     0.0000      Y:     0.0000      Z:     0.0000     Total:     0.0000

  Dipole Moment: [D]
     X:     0.0000      Y:     0.0000      Z:     0.0000     Total:     0.0000


*** tstop() called on c1-9.compute.lan at Tue Feb  2 11:29:03 2021
Module time:
	user time   =       8.18 seconds =       0.14 minutes
	system time =       0.13 seconds =       0.00 minutes
	total time  =          8 seconds =       0.13 minutes
Total time:
	user time   =      21.39 seconds =       0.36 minutes
	system time =       0.53 seconds =       0.01 minutes
	total time  =         22 seconds =       0.37 minutes

*** tstart() called on c1-9.compute.lan
*** at Tue Feb  2 11:29:03 2021


         ------------------------------------------------------------
                                   SCF GRAD                          
                          Rob Parrish, Justin Turney,                
                       Andy Simmonett, and Alex Sokolov              
         ------------------------------------------------------------

  ==> Geometry <==

    Molecular point group: d2h
    Full point group: D_inf_h

    Geometry (in Angstrom), charge = 0, multiplicity = 1:

       Center              X                  Y                   Z               Mass       
    ------------   -----------------  -----------------  -----------------  -----------------
         S            0.000000000000     0.000000000000    -0.960426061594    31.972071174400
         S            0.000000000000     0.000000000000     0.960426061594    31.972071174400

  Nuclear repulsion =   70.525661135580506

  ==> Basis Set <==

  Basis Set: AUG-CC-PVTZ
    Blend: AUG-CC-PVTZ
    Number of shells: 32
    Number of basis function: 100
    Number of Cartesian functions: 118
    Spherical Harmonics?: true
    Max angular momentum: 3

  ==> DFJKGrad: Density-Fitted SCF Gradients <==

    Gradient:                    1
    J tasked:                  Yes
    K tasked:                  Yes
    wK tasked:                 Yes
    Omega:               2.000E-01
    OpenMP threads:              1
    Integrals threads:           1
    Memory [MiB]:             7152
    Schwarz Cutoff:          0E+00
    Fitting Condition:       1E-10

   => Auxiliary Basis Set <=

  Basis Set: (AUG-CC-PVTZ AUX)
    Blend: AUG-CC-PVTZ-JKFIT
    Number of shells: 84
    Number of basis function: 292
    Number of Cartesian functions: 360
    Spherical Harmonics?: true
    Max angular momentum: 4

  ==> DFT Potential <==

   => Composite Functional: WB97X-D <= 

    wB97X-D Hyb-GGA Exchange-Correlation Functional

    J.-D. Chai and M. Head-Gordon, Phys. Chem. Chem. Phys. 10, 6615 (2008)

    Deriv               =              1
    GGA                 =           TRUE
    Meta                =          FALSE

    Exchange Hybrid     =           TRUE
    MP2 Hybrid          =          FALSE

   => Exchange-Correlation Functionals <=

    1.0000   wB97D range-separated functional

   => Exact (HF) Exchange <=

    0.7780            HF,LR [omega = 0.2000]
    0.2220               HF 

   => Molecular Quadrature <=

    Radial Scheme          =       TREUTLER
    Pruning Scheme         =           NONE
    Nuclear Scheme         =       TREUTLER

    BS radius alpha        =              1
    Pruning alpha          =              1
    Radial Points          =             99
    Spherical Points       =            590
    Total Points           =         113352
    Total Blocks           =            982
    Max Points             =            256
    Max Functions          =            100
    Weights Tolerance      =       1.00E-15


  -Total Gradient:
     Atom            X                  Y                   Z
    ------   -----------------  -----------------  -----------------
       1        0.000000000000     0.000000000000    -0.016679897146
       2        0.000000000000    -0.000000000000     0.016679897146


*** tstop() called on c1-9.compute.lan at Tue Feb  2 11:29:08 2021
Module time:
	user time   =       4.06 seconds =       0.07 minutes
	system time =       0.05 seconds =       0.00 minutes
	total time  =          5 seconds =       0.08 minutes
Total time:
	user time   =      25.45 seconds =       0.42 minutes
	system time =       0.58 seconds =       0.01 minutes
	total time  =         27 seconds =       0.45 minutes

			-----------------------------------------
			 OPTKING 2.0: for geometry optimizations 
			  - R.A. King,  Bethel University        
			-----------------------------------------

	Previous internal coordinate definitions found.
	---Fragment 1 Geometry and Gradient---
	 S           0.0000000000        0.0000000000       -1.8149422202
	 S           0.0000000000        0.0000000000        1.8149422202
	             0.0000000000        0.0000000000       -0.0166798971
	             0.0000000000       -0.0000000000        0.0166798971

	---Fragment 1 Intrafragment Coordinates---
	 - Coordinate -           - BOHR/RAD -       - ANG/DEG -
	 R(1,2)           =         3.629884	       1.920852

	Current energy   :      -796.3565411833

	Energy change for the previous step:
		Projected    :         0.0031986048
		Actual       :        -0.0053755685

	Performing BFGS update.
	Previous computed or guess Hessian on step 1.
	Steps to be used in Hessian update: 1
	Taking RFO optimization step.
	Going to follow RFO solution 1.
	Using RFO vector 1.
	Norm of target step-size    0.06852
	Projected energy change by RFO approximation:         0.0011988208

	Back-transformation to cartesian coordinates...
	Successfully converged to displaced geometry.

	--- Internal Coordinate Step in ANG or DEG, aJ/ANG or AJ/DEG ---
	 ---------------------------------------------------------------------------
	   Coordinate                Previous        Force       Change         New 
	   ----------                --------       ------       ------       ------
	    1 R(1,2)          =      1.920852    -0.137421    -0.036258     1.884594
	 ---------------------------------------------------------------------------
	Successfully symmetrized geometry.

  ==> Convergence Check <==

  Measures of convergence in internal coordinates in au.
  Criteria marked as inactive (o), active & met (*), and active & unmet ( ).
  ---------------------------------------------------------------------------------------------
   Step     Total Energy     Delta E     MAX Force     RMS Force      MAX Disp      RMS Disp   
  ---------------------------------------------------------------------------------------------
    Convergence Criteria             o    2.00e-06 *    1.00e-06 *    6.00e-06 *    4.00e-06 *
  ---------------------------------------------------------------------------------------------
      2    -796.35654118   -5.38e-03 o    1.67e-02      1.67e-02      6.85e-02      6.85e-02    ~
  ---------------------------------------------------------------------------------------------

	Writing optimization data to binary file.
	Structure for next step:
	Cartesian Geometry (in Angstrom)
	    S     0.0000000000   0.0000000000  -0.9422971602
	    S     0.0000000000   0.0000000000   0.9422971602
			--------------------------
			 OPTKING Finished Execution 
			--------------------------

    Structure for next step:
    Molecular point group: d2h
    Full point group: D_inf_h

    Geometry (in Angstrom), charge = 0, multiplicity = 1:

    S       
    S             1          r1

    r1        =    1.8845943277

gradient() will perform analytic gradient computation.

*** tstart() called on c1-9.compute.lan
*** at Tue Feb  2 11:29:08 2021

   => Loading Basis Set <=

    Name: AUG-CC-PVTZ
    Role: ORBITAL
    Keyword: BASIS
    atoms 1-2 entry S          line   906 file /apps/gb/PSI4/1.4.0/share/psi4/basis/aug-cc-pvtz.gbs 

   => WB97X-D: Empirical Dispersion <=

    Chai and Head-Gordon Dispersion Correction
    Chai, J.-D.; Head-Gordon, M. (2010), J. Chem. Phys., 132: 6615-6620

        s6 =       1.000000


         ---------------------------------------------------------
                                   SCF
               by Justin Turney, Rob Parrish, Andy Simmonett
                          and Daniel G. A. Smith
                              UKS Reference
                        1 Threads,   9536 MiB Core
         ---------------------------------------------------------

  ==> Geometry <==

    Molecular point group: d2h
    Full point group: D_inf_h

    Geometry (in Angstrom), charge = 0, multiplicity = 1:

       Center              X                  Y                   Z               Mass       
    ------------   -----------------  -----------------  -----------------  -----------------
         S            0.000000000000     0.000000000000    -0.942297163870    31.972071174400
         S            0.000000000000     0.000000000000     0.942297163870    31.972071174400

  Running in d2h symmetry.

  Rotational constants: A = ************  B =      0.29691  C =      0.29691 [cm^-1]
  Rotational constants: A = ************  B =   8901.03819  C =   8901.03819 [MHz]
  Nuclear repulsion =   71.882507517655597

  Charge       = 0
  Multiplicity = 1
  Electrons    = 32
  Nalpha       = 16
  Nbeta        = 16

  ==> Algorithm <==

  SCF Algorithm Type is DF.
  DIIS enabled.
  MOM disabled.
  Fractional occupation disabled.
  Guess Type is READ.
  Energy threshold   = 1.00e-08
  Density threshold  = 1.00e-08
  Integral threshold = 0.00e+00

  ==> Primary Basis <==

  Basis Set: AUG-CC-PVTZ
    Blend: AUG-CC-PVTZ
    Number of shells: 32
    Number of basis function: 100
    Number of Cartesian functions: 118
    Spherical Harmonics?: true
    Max angular momentum: 3

  ==> DFT Potential <==

   => Composite Functional: WB97X-D <= 

    wB97X-D Hyb-GGA Exchange-Correlation Functional

    J.-D. Chai and M. Head-Gordon, Phys. Chem. Chem. Phys. 10, 6615 (2008)

    Deriv               =              1
    GGA                 =           TRUE
    Meta                =          FALSE

    Exchange Hybrid     =           TRUE
    MP2 Hybrid          =          FALSE

   => Exchange-Correlation Functionals <=

    1.0000   wB97D range-separated functional

   => Exact (HF) Exchange <=

    0.7780            HF,LR [omega = 0.2000]
    0.2220               HF 

   => Molecular Quadrature <=

    Radial Scheme          =       TREUTLER
    Pruning Scheme         =           NONE
    Nuclear Scheme         =       TREUTLER

    BS radius alpha        =              1
    Pruning alpha          =              1
    Radial Points          =             99
    Spherical Points       =            590
    Total Points           =         113350
    Total Blocks           =            978
    Max Points             =            255
    Max Functions          =            100
    Weights Tolerance      =       1.00E-15

   => Loading Basis Set <=

    Name: (AUG-CC-PVTZ AUX)
    Role: JKFIT
    Keyword: DF_BASIS_SCF
    atoms 1-2 entry S          line   730 file /apps/gb/PSI4/1.4.0/share/psi4/basis/aug-cc-pvtz-jkfit.gbs 

   => Loading Basis Set <=

    Name: AUG-CC-PVTZ
    Role: ORBITAL
    Keyword: BASIS
    atoms 1-2 entry S          line   906 file /apps/gb/PSI4/1.4.0/share/psi4/basis/aug-cc-pvtz.gbs 

  Reading orbitals from file 180, no projection.

  ==> Pre-Iterations <==

   -------------------------------------------------------
    Irrep   Nso     Nmo     Nalpha   Nbeta   Ndocc  Nsocc
   -------------------------------------------------------
     Ag        21      21       0       0       0       0
     B1g        5       5       0       0       0       0
     B2g       12      12       0       0       0       0
     B3g       12      12       0       0       0       0
     Au         5       5       0       0       0       0
     B1u       21      21       0       0       0       0
     B2u       12      12       0       0       0       0
     B3u       12      12       0       0       0       0
   -------------------------------------------------------
    Total     100     100      16      16      16       0
   -------------------------------------------------------

  ==> Integral Setup <==

  ==> DiskDFJK: Density-Fitted J/K Matrices <==

    J tasked:                  Yes
    K tasked:                  Yes
    wK tasked:                 Yes
    Omega:               2.000E-01
    OpenMP threads:              1
    Integrals threads:           1
    Memory [MiB]:             6842
    Algorithm:                Core
    Integral Cache:           NONE
    Schwarz Cutoff:          1E-12
    Fitting Condition:       1E-10

   => Auxiliary Basis Set <=

  Basis Set: (AUG-CC-PVTZ AUX)
    Blend: AUG-CC-PVTZ-JKFIT
    Number of shells: 84
    Number of basis function: 292
    Number of Cartesian functions: 360
    Spherical Harmonics?: true
    Max angular momentum: 4

  Cached 100.0% of DFT collocation blocks in 0.303 [GiB].

  Minimum eigenvalue in the overlap matrix is 2.0778669793E-04.
  Using Symmetric Orthogonalization.

  SCF Guess: Orbitals guess was supplied from a previous computation.

  ==> Iterations <==

                           Total Energy        Delta E     RMS |[F,P]|

   @DF-UKS iter   0:  -796.37218704750103   -7.96372e+02   2.65432e-03 
   @DF-UKS iter   1:  -796.35682670355163    1.53603e-02   3.37381e-04 DIIS
   @DF-UKS iter   2:  -796.35690159914657   -7.48956e-05   2.19691e-04 DIIS
   @DF-UKS iter   3:  -796.35694012042086   -3.85213e-05   1.40273e-05 DIIS
   @DF-UKS iter   4:  -796.35694035431607   -2.33895e-07   3.85683e-06 DIIS
   @DF-UKS iter   5:  -796.35694037513258   -2.08165e-08   4.78631e-07 DIIS
   @DF-UKS iter   6:  -796.35694037554708   -4.14502e-10   5.10834e-08 DIIS
   @DF-UKS iter   7:  -796.35694037555527   -8.18545e-12   9.05159e-09 DIIS
  Energy and wave function converged.


  ==> Post-Iterations <==

   @Spin Contamination Metric:  -2.486899575E-14
   @S^2 Expected:                0.000000000E+00
   @S^2 Observed:               -2.486899575E-14
   @S   Expected:                0.000000000E+00
   @S   Observed:                0.000000000E+00

    Orbital Energies [Eh]
    ---------------------

    Alpha Occupied:                                                       

       1B1u  -89.112548     1Ag   -89.112542     2Ag    -8.119260  
       2B1u   -8.119031     1B2u   -6.070173     1B3g   -6.070101  
       3Ag    -6.067207     3B1u   -6.066348     1B3u   -6.056850  
       1B2g   -6.056787     4Ag    -0.934731     4B1u   -0.702472  
       5Ag    -0.476004     2B2u   -0.445460     2B3u   -0.442514  
       2B2g   -0.293790  

    Alpha Virtual:                                                        

       2B3g   -0.108608     5B1u    0.044428     6Ag     0.085701  
       3B2u    0.089196     3B3u    0.096029     6B1u    0.102202  
       7Ag     0.102992     3B3g    0.118782     3B2g    0.122671  
       1B1g    0.190612     8Ag     0.191789     7B1u    0.210741  
       4B2u    0.242120     4B3u    0.247202     9Ag     0.281005  
       1Au     0.306716     8B1u    0.307975     4B3g    0.373771  
       4B2g    0.376862     9B1u    0.380056     5B2u    0.445052  
       5B3u    0.461094     6B2u    0.548995    10Ag     0.557852  
       6B3u    0.561017    11Ag     0.561381    10B1u    0.563533  
       2B1g    0.570200     5B3g    0.576237    12Ag     0.577459  
       5B2g    0.586997     2Au     0.665658    11B1u    0.666646  
      13Ag     0.672203     7B3u    0.703911     7B2u    0.704041  
       6B3g    0.745115     6B2g    0.759851     3B1g    0.785810  
      14Ag     0.788036     7B2g    0.861740     7B3g    0.861965  
      12B1u    0.881883     8B2u    1.025035     8B3u    1.038322  
       3Au     1.065071    13B1u    1.065519    14B1u    1.110051  
       8B3g    1.225025     8B2g    1.238340    15Ag     1.321249  
      15B1u    1.440561     4B1g    1.775234    16Ag     1.775938  
       9B2u    1.793782    16B1u    1.813830     9B3u    1.814891  
       4Au     1.854754    17B1u    1.857712    17Ag     1.921175  
       9B3g    1.934362     9B2g    1.957040     5B1g    2.018624  
      18Ag     2.018747    19Ag     2.032554    10B2u    2.037085  
      10B3u    2.057761    11B2u    2.083961    12B2u    2.098348  
      11B3u    2.098571    12B3u    2.103598    10B2g    2.174696  
      10B3g    2.174983     5Au     2.339104    18B1u    2.339392  
      11B3g    2.366377    11B2g    2.385234    19B1u    2.485383  
      12B3g    2.671882    12B2g    2.694514    20Ag     2.700612  
      20B1u    3.639325    21Ag     4.656770    21B1u    5.400677  

    Beta Occupied:                                                        

       1B1u  -89.112548     1Ag   -89.112542     2Ag    -8.119260  
       2B1u   -8.119031     1B2u   -6.070173     1B3g   -6.070101  
       3Ag    -6.067207     3B1u   -6.066348     1B3u   -6.056850  
       1B2g   -6.056787     4Ag    -0.934731     4B1u   -0.702472  
       5Ag    -0.476004     2B2u   -0.445460     2B3u   -0.442514  
       2B2g   -0.293790  

    Beta Virtual:                                                         

       2B3g   -0.108608     5B1u    0.044428     6Ag     0.085701  
       3B2u    0.089196     3B3u    0.096029     6B1u    0.102202  
       7Ag     0.102992     3B3g    0.118782     3B2g    0.122671  
       1B1g    0.190612     8Ag     0.191789     7B1u    0.210741  
       4B2u    0.242120     4B3u    0.247202     9Ag     0.281005  
       1Au     0.306716     8B1u    0.307975     4B3g    0.373771  
       4B2g    0.376862     9B1u    0.380056     5B2u    0.445052  
       5B3u    0.461094     6B2u    0.548995    10Ag     0.557852  
       6B3u    0.561017    11Ag     0.561381    10B1u    0.563533  
       2B1g    0.570200     5B3g    0.576237    12Ag     0.577459  
       5B2g    0.586997     2Au     0.665658    11B1u    0.666646  
      13Ag     0.672203     7B3u    0.703911     7B2u    0.704041  
       6B3g    0.745115     6B2g    0.759851     3B1g    0.785810  
      14Ag     0.788036     7B2g    0.861740     7B3g    0.861965  
      12B1u    0.881883     8B2u    1.025035     8B3u    1.038322  
       3Au     1.065071    13B1u    1.065519    14B1u    1.110051  
       8B3g    1.225025     8B2g    1.238340    15Ag     1.321249  
      15B1u    1.440561     4B1g    1.775234    16Ag     1.775938  
       9B2u    1.793782    16B1u    1.813830     9B3u    1.814891  
       4Au     1.854754    17B1u    1.857712    17Ag     1.921175  
       9B3g    1.934362     9B2g    1.957040     5B1g    2.018624  
      18Ag     2.018747    19Ag     2.032554    10B2u    2.037085  
      10B3u    2.057761    11B2u    2.083961    12B2u    2.098348  
      11B3u    2.098571    12B3u    2.103598    10B2g    2.174696  
      10B3g    2.174983     5Au     2.339104    18B1u    2.339392  
      11B3g    2.366377    11B2g    2.385234    19B1u    2.485383  
      12B3g    2.671882    12B2g    2.694514    20Ag     2.700612  
      20B1u    3.639325    21Ag     4.656770    21B1u    5.400677  

    Final Occupation by Irrep:
             Ag   B1g   B2g   B3g    Au   B1u   B2u   B3u 
    DOCC [     5,    0,    2,    1,    0,    4,    2,    2 ]
    SOCC [     0,    0,    0,    0,    0,    0,    0,    0 ]

  @DF-UKS Final Energy:  -796.35694037555527

   => Energetics <=

    Nuclear Repulsion Energy =             71.8825075176555970
    One-Electron Energy =               -1242.3904967724629387
    Two-Electron Energy =                 411.6292135040122275
    DFT Exchange-Correlation Energy =     -37.4781571368433859
    Empirical Dispersion Energy =          -0.0000074879167111
    VV10 Nonlocal Energy =                  0.0000000000000000
    Total Energy =                       -796.3569403755552685

  UHF NO Occupations:
  HONO-2 :    2B2u 2.0000000
  HONO-1 :    2B2g 2.0000000
  HONO-0 :    4B1u 2.0000000
  LUNO+0 :    5B1u 0.0000000
  LUNO+1 :    3B2u 0.0000000
  LUNO+2 :    3B2g 0.0000000
  LUNO+3 :    3B3u 0.0000000


Computation Completed


Properties will be evaluated at   0.000000,   0.000000,   0.000000 [a0]

Properties computed using the SCF density matrix

  Nuclear Dipole Moment: [e a0]
     X:     0.0000      Y:     0.0000      Z:     0.0000

  Electronic Dipole Moment: [e a0]
     X:     0.0000      Y:     0.0000      Z:     0.0000

  Dipole Moment: [e a0]
     X:     0.0000      Y:     0.0000      Z:     0.0000     Total:     0.0000

  Dipole Moment: [D]
     X:     0.0000      Y:     0.0000      Z:     0.0000     Total:     0.0000


*** tstop() called on c1-9.compute.lan at Tue Feb  2 11:29:15 2021
Module time:
	user time   =       7.45 seconds =       0.12 minutes
	system time =       0.12 seconds =       0.00 minutes
	total time  =          7 seconds =       0.12 minutes
Total time:
	user time   =      32.91 seconds =       0.55 minutes
	system time =       0.70 seconds =       0.01 minutes
	total time  =         34 seconds =       0.57 minutes

*** tstart() called on c1-9.compute.lan
*** at Tue Feb  2 11:29:15 2021


         ------------------------------------------------------------
                                   SCF GRAD                          
                          Rob Parrish, Justin Turney,                
                       Andy Simmonett, and Alex Sokolov              
         ------------------------------------------------------------

  ==> Geometry <==

    Molecular point group: d2h
    Full point group: D_inf_h

    Geometry (in Angstrom), charge = 0, multiplicity = 1:

       Center              X                  Y                   Z               Mass       
    ------------   -----------------  -----------------  -----------------  -----------------
         S            0.000000000000     0.000000000000    -0.942297163870    31.972071174400
         S            0.000000000000     0.000000000000     0.942297163870    31.972071174400

  Nuclear repulsion =   71.882507517655597

  ==> Basis Set <==

  Basis Set: AUG-CC-PVTZ
    Blend: AUG-CC-PVTZ
    Number of shells: 32
    Number of basis function: 100
    Number of Cartesian functions: 118
    Spherical Harmonics?: true
    Max angular momentum: 3

  ==> DFJKGrad: Density-Fitted SCF Gradients <==

    Gradient:                    1
    J tasked:                  Yes
    K tasked:                  Yes
    wK tasked:                 Yes
    Omega:               2.000E-01
    OpenMP threads:              1
    Integrals threads:           1
    Memory [MiB]:             7152
    Schwarz Cutoff:          0E+00
    Fitting Condition:       1E-10

   => Auxiliary Basis Set <=

  Basis Set: (AUG-CC-PVTZ AUX)
    Blend: AUG-CC-PVTZ-JKFIT
    Number of shells: 84
    Number of basis function: 292
    Number of Cartesian functions: 360
    Spherical Harmonics?: true
    Max angular momentum: 4

  ==> DFT Potential <==

   => Composite Functional: WB97X-D <= 

    wB97X-D Hyb-GGA Exchange-Correlation Functional

    J.-D. Chai and M. Head-Gordon, Phys. Chem. Chem. Phys. 10, 6615 (2008)

    Deriv               =              1
    GGA                 =           TRUE
    Meta                =          FALSE

    Exchange Hybrid     =           TRUE
    MP2 Hybrid          =          FALSE

   => Exchange-Correlation Functionals <=

    1.0000   wB97D range-separated functional

   => Exact (HF) Exchange <=

    0.7780            HF,LR [omega = 0.2000]
    0.2220               HF 

   => Molecular Quadrature <=

    Radial Scheme          =       TREUTLER
    Pruning Scheme         =           NONE
    Nuclear Scheme         =       TREUTLER

    BS radius alpha        =              1
    Pruning alpha          =              1
    Radial Points          =             99
    Spherical Points       =            590
    Total Points           =         113350
    Total Blocks           =            978
    Max Points             =            255
    Max Functions          =            100
    Weights Tolerance      =       1.00E-15


  -Total Gradient:
     Atom            X                  Y                   Z
    ------   -----------------  -----------------  -----------------
       1        0.000000000000     0.000000000000     0.005523050188
       2        0.000000000000     0.000000000000    -0.005523050188


*** tstop() called on c1-9.compute.lan at Tue Feb  2 11:29:19 2021
Module time:
	user time   =       4.04 seconds =       0.07 minutes
	system time =       0.05 seconds =       0.00 minutes
	total time  =          4 seconds =       0.07 minutes
Total time:
	user time   =      36.95 seconds =       0.62 minutes
	system time =       0.75 seconds =       0.01 minutes
	total time  =         38 seconds =       0.63 minutes

			-----------------------------------------
			 OPTKING 2.0: for geometry optimizations 
			  - R.A. King,  Bethel University        
			-----------------------------------------

	Previous internal coordinate definitions found.
	---Fragment 1 Geometry and Gradient---
	 S           0.0000000000        0.0000000000       -1.7806835685
	 S           0.0000000000        0.0000000000        1.7806835685
	             0.0000000000        0.0000000000        0.0055230502
	             0.0000000000        0.0000000000       -0.0055230502

	---Fragment 1 Intrafragment Coordinates---
	 - Coordinate -           - BOHR/RAD -       - ANG/DEG -
	 R(1,2)           =         3.561367	       1.884594

	Current energy   :      -796.3569403756

	Energy change for the previous step:
		Projected    :         0.0011988208
		Actual       :        -0.0003991922

	Performing BFGS update.
	Previous computed or guess Hessian on step 1.
	Steps to be used in Hessian update: 2 1
	Taking RFO optimization step.
	Going to follow RFO solution 1.
	Using RFO vector 1.
	Norm of target step-size    0.02060
	Projected energy change by RFO approximation:         0.0000983789

	Back-transformation to cartesian coordinates...
	Successfully converged to displaced geometry.

	--- Internal Coordinate Step in ANG or DEG, aJ/ANG or AJ/DEG ---
	 ---------------------------------------------------------------------------
	   Coordinate                Previous        Force       Change         New 
	   ----------                --------       ------       ------       ------
	    1 R(1,2)          =      1.884594     0.045503     0.010902     1.895496
	 ---------------------------------------------------------------------------
	Successfully symmetrized geometry.

  ==> Convergence Check <==

  Measures of convergence in internal coordinates in au.
  Criteria marked as inactive (o), active & met (*), and active & unmet ( ).
  ---------------------------------------------------------------------------------------------
   Step     Total Energy     Delta E     MAX Force     RMS Force      MAX Disp      RMS Disp   
  ---------------------------------------------------------------------------------------------
    Convergence Criteria             o    2.00e-06 *    1.00e-06 *    6.00e-06 *    4.00e-06 *
  ---------------------------------------------------------------------------------------------
      3    -796.35694038   -3.99e-04 o    5.52e-03      5.52e-03      2.06e-02      2.06e-02    ~
  ---------------------------------------------------------------------------------------------

	Writing optimization data to binary file.
	Structure for next step:
	Cartesian Geometry (in Angstrom)
	    S     0.0000000000   0.0000000000  -0.9477479577
	    S     0.0000000000   0.0000000000   0.9477479577
			--------------------------
			 OPTKING Finished Execution 
			--------------------------

    Structure for next step:
    Molecular point group: d2h
    Full point group: D_inf_h

    Geometry (in Angstrom), charge = 0, multiplicity = 1:

    S       
    S             1          r1

    r1        =    1.8954959229

gradient() will perform analytic gradient computation.

*** tstart() called on c1-9.compute.lan
*** at Tue Feb  2 11:29:19 2021

   => Loading Basis Set <=

    Name: AUG-CC-PVTZ
    Role: ORBITAL
    Keyword: BASIS
    atoms 1-2 entry S          line   906 file /apps/gb/PSI4/1.4.0/share/psi4/basis/aug-cc-pvtz.gbs 

   => WB97X-D: Empirical Dispersion <=

    Chai and Head-Gordon Dispersion Correction
    Chai, J.-D.; Head-Gordon, M. (2010), J. Chem. Phys., 132: 6615-6620

        s6 =       1.000000


         ---------------------------------------------------------
                                   SCF
               by Justin Turney, Rob Parrish, Andy Simmonett
                          and Daniel G. A. Smith
                              UKS Reference
                        1 Threads,   9536 MiB Core
         ---------------------------------------------------------

  ==> Geometry <==

    Molecular point group: d2h
    Full point group: D_inf_h

    Geometry (in Angstrom), charge = 0, multiplicity = 1:

       Center              X                  Y                   Z               Mass       
    ------------   -----------------  -----------------  -----------------  -----------------
         S            0.000000000000     0.000000000000    -0.947747961440    31.972071174400
         S            0.000000000000     0.000000000000     0.947747961440    31.972071174400

  Running in d2h symmetry.

  Rotational constants: A = ************  B =      0.29350  C =      0.29350 [cm^-1]
  Rotational constants: A = ************  B =   8798.94726  C =   8798.94726 [MHz]
  Nuclear repulsion =   71.469088535800523

  Charge       = 0
  Multiplicity = 1
  Electrons    = 32
  Nalpha       = 16
  Nbeta        = 16

  ==> Algorithm <==

  SCF Algorithm Type is DF.
  DIIS enabled.
  MOM disabled.
  Fractional occupation disabled.
  Guess Type is READ.
  Energy threshold   = 1.00e-08
  Density threshold  = 1.00e-08
  Integral threshold = 0.00e+00

  ==> Primary Basis <==

  Basis Set: AUG-CC-PVTZ
    Blend: AUG-CC-PVTZ
    Number of shells: 32
    Number of basis function: 100
    Number of Cartesian functions: 118
    Spherical Harmonics?: true
    Max angular momentum: 3

  ==> DFT Potential <==

   => Composite Functional: WB97X-D <= 

    wB97X-D Hyb-GGA Exchange-Correlation Functional

    J.-D. Chai and M. Head-Gordon, Phys. Chem. Chem. Phys. 10, 6615 (2008)

    Deriv               =              1
    GGA                 =           TRUE
    Meta                =          FALSE

    Exchange Hybrid     =           TRUE
    MP2 Hybrid          =          FALSE

   => Exchange-Correlation Functionals <=

    1.0000   wB97D range-separated functional

   => Exact (HF) Exchange <=

    0.7780            HF,LR [omega = 0.2000]
    0.2220               HF 

   => Molecular Quadrature <=

    Radial Scheme          =       TREUTLER
    Pruning Scheme         =           NONE
    Nuclear Scheme         =       TREUTLER

    BS radius alpha        =              1
    Pruning alpha          =              1
    Radial Points          =             99
    Spherical Points       =            590
    Total Points           =         113358
    Total Blocks           =            980
    Max Points             =            256
    Max Functions          =            100
    Weights Tolerance      =       1.00E-15

   => Loading Basis Set <=

    Name: (AUG-CC-PVTZ AUX)
    Role: JKFIT
    Keyword: DF_BASIS_SCF
    atoms 1-2 entry S          line   730 file /apps/gb/PSI4/1.4.0/share/psi4/basis/aug-cc-pvtz-jkfit.gbs 

   => Loading Basis Set <=

    Name: AUG-CC-PVTZ
    Role: ORBITAL
    Keyword: BASIS
    atoms 1-2 entry S          line   906 file /apps/gb/PSI4/1.4.0/share/psi4/basis/aug-cc-pvtz.gbs 

  Reading orbitals from file 180, no projection.

  ==> Pre-Iterations <==

   -------------------------------------------------------
    Irrep   Nso     Nmo     Nalpha   Nbeta   Ndocc  Nsocc
   -------------------------------------------------------
     Ag        21      21       0       0       0       0
     B1g        5       5       0       0       0       0
     B2g       12      12       0       0       0       0
     B3g       12      12       0       0       0       0
     Au         5       5       0       0       0       0
     B1u       21      21       0       0       0       0
     B2u       12      12       0       0       0       0
     B3u       12      12       0       0       0       0
   -------------------------------------------------------
    Total     100     100      16      16      16       0
   -------------------------------------------------------

  ==> Integral Setup <==

  ==> DiskDFJK: Density-Fitted J/K Matrices <==

    J tasked:                  Yes
    K tasked:                  Yes
    wK tasked:                 Yes
    Omega:               2.000E-01
    OpenMP threads:              1
    Integrals threads:           1
    Memory [MiB]:             6842
    Algorithm:                Core
    Integral Cache:           NONE
    Schwarz Cutoff:          1E-12
    Fitting Condition:       1E-10

   => Auxiliary Basis Set <=

  Basis Set: (AUG-CC-PVTZ AUX)
    Blend: AUG-CC-PVTZ-JKFIT
    Number of shells: 84
    Number of basis function: 292
    Number of Cartesian functions: 360
    Spherical Harmonics?: true
    Max angular momentum: 4

  Cached 100.0% of DFT collocation blocks in 0.303 [GiB].

  Minimum eigenvalue in the overlap matrix is 2.1317558782E-04.
  Using Symmetric Orthogonalization.

  SCF Guess: Orbitals guess was supplied from a previous computation.

  ==> Iterations <==

                           Total Energy        Delta E     RMS |[F,P]|

   @DF-UKS iter   0:  -796.35273675019357   -7.96353e+02   8.12521e-04 
   @DF-UKS iter   1:  -796.35697228345225   -4.23553e-03   1.03283e-04 DIIS
   @DF-UKS iter   2:  -796.35697929507114   -7.01162e-06   6.69601e-05 DIIS
   @DF-UKS iter   3:  -796.35698288931337   -3.59424e-06   4.28237e-06 DIIS
   @DF-UKS iter   4:  -796.35698291111976   -2.18064e-08   1.18502e-06 DIIS
   @DF-UKS iter   5:  -796.35698291312440   -2.00464e-09   1.46261e-07 DIIS
   @DF-UKS iter   6:  -796.35698291316351   -3.91083e-11   1.58560e-08 DIIS
   @DF-UKS iter   7:  -796.35698291316430   -7.95808e-13   2.83889e-09 DIIS
  Energy and wave function converged.


  ==> Post-Iterations <==

   @Spin Contamination Metric:  -3.197442311E-14
   @S^2 Expected:                0.000000000E+00
   @S^2 Observed:               -3.197442311E-14
   @S   Expected:                0.000000000E+00
   @S   Observed:                0.000000000E+00

    Orbital Energies [Eh]
    ---------------------

    Alpha Occupied:                                                       

       1B1u  -89.113458     1Ag   -89.113453     2Ag    -8.119828  
       2B1u   -8.119614     1B2u   -6.070763     1B3g   -6.070696  
       3Ag    -6.067798     3B1u   -6.066998     1B3u   -6.057428  
       1B2g   -6.057370     4Ag    -0.931796     4B1u   -0.703729  
       5Ag    -0.475444     2B2u   -0.443792     2B3u   -0.441109  
       2B2g   -0.294997  

    Alpha Virtual:                                                        

       2B3g   -0.109900     5B1u    0.043207     6Ag     0.085674  
       3B2u    0.089347     3B3u    0.096178     6B1u    0.100037  
       7Ag     0.103125     3B3g    0.118732     3B2g    0.122624  
       1B1g    0.190855     8Ag     0.192028     7B1u    0.210424  
       4B2u    0.241538     4B3u    0.246727     9Ag     0.281748  
       1Au     0.306197     8B1u    0.307446     4B3g    0.373492  
       4B2g    0.376622     9B1u    0.378510     5B2u    0.445648  
       5B3u    0.461599     6B2u    0.548893    10Ag     0.559129  
       6B3u    0.560969    11Ag     0.562005    10B1u    0.564005  
       2B1g    0.571085     5B3g    0.575708    12Ag     0.578065  
       5B2g    0.586546     2Au     0.665097    11B1u    0.666074  
      13Ag     0.669703     7B3u    0.704298     7B2u    0.704427  
       6B3g    0.743035     6B2g    0.757754     3B1g    0.784197  
      14Ag     0.786398     7B2g    0.860814     7B3g    0.861035  
      12B1u    0.877692     8B2u    1.022844     8B3u    1.036188  
       3Au     1.063259    13B1u    1.063540    14B1u    1.104510  
       8B3g    1.223135     8B2g    1.236394    15Ag     1.317406  
      15B1u    1.442253     4B1g    1.774953    16Ag     1.775654  
       9B2u    1.797305    16B1u    1.813553     9B3u    1.818425  
       4Au     1.853848    17B1u    1.856772    17Ag     1.923288  
       9B3g    1.936304     9B2g    1.958977     5B1g    2.022069  
      18Ag     2.022081    10B2u    2.034519    19Ag     2.035587  
      10B3u    2.054966    11B2u    2.080415    11B3u    2.098913  
      12B2u    2.099210    12B3u    2.100655    10B2g    2.173776  
      10B3g    2.174063     5Au     2.334599    18B1u    2.334856  
      11B3g    2.358966    11B2g    2.377828    19B1u    2.478094  
      12B3g    2.664144    20Ag     2.680596    12B2g    2.686718  
      20B1u    3.646704    21Ag     4.635435    21B1u    5.382076  

    Beta Occupied:                                                        

       1B1u  -89.113458     1Ag   -89.113453     2Ag    -8.119828  
       2B1u   -8.119614     1B2u   -6.070763     1B3g   -6.070696  
       3Ag    -6.067798     3B1u   -6.066998     1B3u   -6.057428  
       1B2g   -6.057370     4Ag    -0.931796     4B1u   -0.703729  
       5Ag    -0.475444     2B2u   -0.443792     2B3u   -0.441109  
       2B2g   -0.294997  

    Beta Virtual:                                                         

       2B3g   -0.109900     5B1u    0.043207     6Ag     0.085674  
       3B2u    0.089347     3B3u    0.096178     6B1u    0.100037  
       7Ag     0.103125     3B3g    0.118732     3B2g    0.122624  
       1B1g    0.190855     8Ag     0.192028     7B1u    0.210424  
       4B2u    0.241538     4B3u    0.246727     9Ag     0.281748  
       1Au     0.306197     8B1u    0.307446     4B3g    0.373492  
       4B2g    0.376622     9B1u    0.378510     5B2u    0.445648  
       5B3u    0.461599     6B2u    0.548893    10Ag     0.559129  
       6B3u    0.560969    11Ag     0.562005    10B1u    0.564005  
       2B1g    0.571085     5B3g    0.575708    12Ag     0.578065  
       5B2g    0.586546     2Au     0.665097    11B1u    0.666074  
      13Ag     0.669703     7B3u    0.704298     7B2u    0.704427  
       6B3g    0.743035     6B2g    0.757754     3B1g    0.784197  
      14Ag     0.786398     7B2g    0.860814     7B3g    0.861035  
      12B1u    0.877692     8B2u    1.022844     8B3u    1.036188  
       3Au     1.063259    13B1u    1.063540    14B1u    1.104510  
       8B3g    1.223135     8B2g    1.236394    15Ag     1.317406  
      15B1u    1.442253     4B1g    1.774953    16Ag     1.775654  
       9B2u    1.797305    16B1u    1.813553     9B3u    1.818425  
       4Au     1.853848    17B1u    1.856772    17Ag     1.923288  
       9B3g    1.936304     9B2g    1.958977     5B1g    2.022069  
      18Ag     2.022081    10B2u    2.034519    19Ag     2.035587  
      10B3u    2.054966    11B2u    2.080415    11B3u    2.098913  
      12B2u    2.099210    12B3u    2.100655    10B2g    2.173776  
      10B3g    2.174063     5Au     2.334599    18B1u    2.334856  
      11B3g    2.358966    11B2g    2.377828    19B1u    2.478094  
      12B3g    2.664144    20Ag     2.680596    12B2g    2.686718  
      20B1u    3.646704    21Ag     4.635435    21B1u    5.382076  

    Final Occupation by Irrep:
             Ag   B1g   B2g   B3g    Au   B1u   B2u   B3u 
    DOCC [     5,    0,    2,    1,    0,    4,    2,    2 ]
    SOCC [     0,    0,    0,    0,    0,    0,    0,    0 ]

  @DF-UKS Final Energy:  -796.35698291316430

   => Energetics <=

    Nuclear Repulsion Energy =             71.4690885358005232
    One-Electron Energy =               -1241.5616729592138654
    Two-Electron Energy =                 411.2095083494811547
    DFT Exchange-Correlation Energy =     -37.4738990877288742
    Empirical Dispersion Energy =          -0.0000077515032434
    VV10 Nonlocal Energy =                  0.0000000000000000
    Total Energy =                       -796.3569829131644155

  UHF NO Occupations:
  HONO-2 :    2B2u 2.0000000
  HONO-1 :    2B2g 2.0000000
  HONO-0 :    4B1u 2.0000000
  LUNO+0 :    6 Ag 0.0000000
  LUNO+1 :    3B3u 0.0000000
  LUNO+2 :    3B2u 0.0000000
  LUNO+3 :    3B2g 0.0000000


Computation Completed


Properties will be evaluated at   0.000000,   0.000000,   0.000000 [a0]

Properties computed using the SCF density matrix

  Nuclear Dipole Moment: [e a0]
     X:     0.0000      Y:     0.0000      Z:     0.0000

  Electronic Dipole Moment: [e a0]
     X:     0.0000      Y:     0.0000      Z:     0.0000

  Dipole Moment: [e a0]
     X:     0.0000      Y:     0.0000      Z:     0.0000     Total:     0.0000

  Dipole Moment: [D]
     X:     0.0000      Y:     0.0000      Z:     0.0000     Total:     0.0000


*** tstop() called on c1-9.compute.lan at Tue Feb  2 11:29:27 2021
Module time:
	user time   =       7.49 seconds =       0.12 minutes
	system time =       0.09 seconds =       0.00 minutes
	total time  =          8 seconds =       0.13 minutes
Total time:
	user time   =      44.45 seconds =       0.74 minutes
	system time =       0.84 seconds =       0.01 minutes
	total time  =         46 seconds =       0.77 minutes

*** tstart() called on c1-9.compute.lan
*** at Tue Feb  2 11:29:27 2021


         ------------------------------------------------------------
                                   SCF GRAD                          
                          Rob Parrish, Justin Turney,                
                       Andy Simmonett, and Alex Sokolov              
         ------------------------------------------------------------

  ==> Geometry <==

    Molecular point group: d2h
    Full point group: D_inf_h

    Geometry (in Angstrom), charge = 0, multiplicity = 1:

       Center              X                  Y                   Z               Mass       
    ------------   -----------------  -----------------  -----------------  -----------------
         S            0.000000000000     0.000000000000    -0.947747961440    31.972071174400
         S            0.000000000000     0.000000000000     0.947747961440    31.972071174400

  Nuclear repulsion =   71.469088535800523

  ==> Basis Set <==

  Basis Set: AUG-CC-PVTZ
    Blend: AUG-CC-PVTZ
    Number of shells: 32
    Number of basis function: 100
    Number of Cartesian functions: 118
    Spherical Harmonics?: true
    Max angular momentum: 3

  ==> DFJKGrad: Density-Fitted SCF Gradients <==

    Gradient:                    1
    J tasked:                  Yes
    K tasked:                  Yes
    wK tasked:                 Yes
    Omega:               2.000E-01
    OpenMP threads:              1
    Integrals threads:           1
    Memory [MiB]:             7152
    Schwarz Cutoff:          0E+00
    Fitting Condition:       1E-10

   => Auxiliary Basis Set <=

  Basis Set: (AUG-CC-PVTZ AUX)
    Blend: AUG-CC-PVTZ-JKFIT
    Number of shells: 84
    Number of basis function: 292
    Number of Cartesian functions: 360
    Spherical Harmonics?: true
    Max angular momentum: 4

  ==> DFT Potential <==

   => Composite Functional: WB97X-D <= 

    wB97X-D Hyb-GGA Exchange-Correlation Functional

    J.-D. Chai and M. Head-Gordon, Phys. Chem. Chem. Phys. 10, 6615 (2008)

    Deriv               =              1
    GGA                 =           TRUE
    Meta                =          FALSE

    Exchange Hybrid     =           TRUE
    MP2 Hybrid          =          FALSE

   => Exchange-Correlation Functionals <=

    1.0000   wB97D range-separated functional

   => Exact (HF) Exchange <=

    0.7780            HF,LR [omega = 0.2000]
    0.2220               HF 

   => Molecular Quadrature <=

    Radial Scheme          =       TREUTLER
    Pruning Scheme         =           NONE
    Nuclear Scheme         =       TREUTLER

    BS radius alpha        =              1
    Pruning alpha          =              1
    Radial Points          =             99
    Spherical Points       =            590
    Total Points           =         113358
    Total Blocks           =            980
    Max Points             =            256
    Max Functions          =            100
    Weights Tolerance      =       1.00E-15


  -Total Gradient:
     Atom            X                  Y                   Z
    ------   -----------------  -----------------  -----------------
       1        0.000000000000    -0.000000000000    -0.001582332882
       2        0.000000000000    -0.000000000000     0.001582332882


*** tstop() called on c1-9.compute.lan at Tue Feb  2 11:29:31 2021
Module time:
	user time   =       4.05 seconds =       0.07 minutes
	system time =       0.03 seconds =       0.00 minutes
	total time  =          4 seconds =       0.07 minutes
Total time:
	user time   =      48.50 seconds =       0.81 minutes
	system time =       0.87 seconds =       0.01 minutes
	total time  =         50 seconds =       0.83 minutes

			-----------------------------------------
			 OPTKING 2.0: for geometry optimizations 
			  - R.A. King,  Bethel University        
			-----------------------------------------

	Previous internal coordinate definitions found.
	---Fragment 1 Geometry and Gradient---
	 S           0.0000000000        0.0000000000       -1.7909840831
[...]
     Au         5       5       0       0       0       0
     B1u       21      21       0       0       0       0
     B2u       12      12       0       0       0       0
     B3u       12      12       0       0       0       0
   -------------------------------------------------------
    Total     100     100      16      16      16       0
   -------------------------------------------------------

  ==> Integral Setup <==

  ==> DiskDFJK: Density-Fitted J/K Matrices <==

    J tasked:                  Yes
    K tasked:                  Yes
    wK tasked:                 Yes
    Omega:               2.000E-01
    OpenMP threads:              1
    Integrals threads:           1
    Memory [MiB]:             6842
    Algorithm:                Core
    Integral Cache:           NONE
    Schwarz Cutoff:          1E-12
    Fitting Condition:       1E-10

   => Auxiliary Basis Set <=

  Basis Set: (AUG-CC-PVTZ AUX)
    Blend: AUG-CC-PVTZ-JKFIT
    Number of shells: 84
    Number of basis function: 292
    Number of Cartesian functions: 360
    Spherical Harmonics?: true
    Max angular momentum: 4

  Cached 100.0% of DFT collocation blocks in 0.303 [GiB].

  Minimum eigenvalue in the overlap matrix is 2.1160982084E-04.
  Using Symmetric Orthogonalization.

  SCF Guess: Superposition of Atomic Densities via on-the-fly atomic UHF.

  ==> Iterations <==

                           Total Energy        Delta E     RMS |[F,P]|

   @DF-UKS iter SAD:  -796.06598265256957   -7.96066e+02   0.00000e+00 
   @DF-UKS iter   1:  -796.33858436978619   -2.72602e-01   6.28004e-03 DIIS
   @DF-UKS iter   2:  -796.35528162071910   -1.66973e-02   2.20554e-03 DIIS
   @DF-UKS iter   3:  -796.35692277142971   -1.64115e-03   1.84421e-04 DIIS
   @DF-UKS iter   4:  -796.35697796214595   -5.51907e-05   7.76325e-05 DIIS
   @DF-UKS iter   5:  -796.35698510571569   -7.14357e-06   1.68289e-05 DIIS
   @DF-UKS iter   6:  -796.35698564016707   -5.34451e-07   1.72794e-06 DIIS
   @DF-UKS iter   7:  -796.35698564708082   -6.91375e-09   1.62184e-07 DIIS
   @DF-UKS iter   8:  -796.35698564715824   -7.74207e-11   2.95804e-08 DIIS
   @DF-UKS iter   9:  -796.35698564716085   -2.61480e-12   3.72517e-09 DIIS
  Energy and wave function converged.


  ==> Post-Iterations <==

   @Spin Contamination Metric:   5.329070518E-15
   @S^2 Expected:                0.000000000E+00
   @S^2 Observed:                5.329070518E-15
   @S   Expected:                0.000000000E+00
   @S   Observed:                0.000000000E+00

    Orbital Energies [Eh]
    ---------------------

    Alpha Occupied:                                                       

       1B1u  -89.113198     1Ag   -89.113192     2Ag    -8.119665  
       2B1u   -8.119446     1B2u   -6.070594     1B3g   -6.070525  
       3Ag    -6.067628     3B1u   -6.066811     1B3u   -6.057263  
       1B2g   -6.057203     4Ag    -0.932637     4B1u   -0.703367  
       5Ag    -0.475607     2B2u   -0.444269     2B3u   -0.441511  
       2B2g   -0.294651  

    Alpha Virtual:                                                        

       2B3g   -0.109529     5B1u    0.043567     6Ag     0.085682  
       3B2u    0.089304     3B3u    0.096136     6B1u    0.100652  
       7Ag     0.103087     3B3g    0.118747     3B2g    0.122637  
       1B1g    0.190785     8Ag     0.191959     7B1u    0.210514  
       4B2u    0.241706     4B3u    0.246864     9Ag     0.281535  
       1Au     0.306346     8B1u    0.307598     4B3g    0.373573  
       4B2g    0.376691     9B1u    0.378954     5B2u    0.445478  
       5B3u    0.461455     6B2u    0.548921    10Ag     0.558767  
       6B3u    0.560981    11Ag     0.561821    10B1u    0.563869  
       2B1g    0.570832     5B3g    0.575861    12Ag     0.577890  
       5B2g    0.586677     2Au     0.665258    11B1u    0.666239  
      13Ag     0.670420     7B3u    0.704187     7B2u    0.704316  
       6B3g    0.743630     6B2g    0.758354     3B1g    0.784661  
      14Ag     0.786869     7B2g    0.861080     7B3g    0.861302  
      12B1u    0.878900     8B2u    1.023476     8B3u    1.036804  
       3Au     1.063780    13B1u    1.064112    14B1u    1.106092  
       8B3g    1.223675     8B2g    1.236949    15Ag     1.318516  
      15B1u    1.441788     4B1g    1.775036    16Ag     1.775738  
       9B2u    1.796302    16B1u    1.813603     9B3u    1.817418  
       4Au     1.854107    17B1u    1.857040    17Ag     1.922673  
       9B3g    1.935749     9B2g    1.958424     5B1g    2.021075  
      18Ag     2.021121    19Ag     2.034714    10B2u    2.035293  
      10B3u    2.055809    11B2u    2.081374    12B2u    2.098965  
      11B3u    2.098965    12B3u    2.101291    10B2g    2.174039  
      10B3g    2.174325     5Au     2.335891    18B1u    2.336157  
      11B3g    2.361090    11B2g    2.379950    19B1u    2.480178  
      12B3g    2.666372    20Ag     2.686346    12B2g    2.688962  
      20B1u    3.644709    21Ag     4.641537    21B1u    5.387263  

    Beta Occupied:                                                        

       1B1u  -89.113198     1Ag   -89.113192     2Ag    -8.119665  
       2B1u   -8.119446     1B2u   -6.070594     1B3g   -6.070525  
       3Ag    -6.067628     3B1u   -6.066811     1B3u   -6.057263  
       1B2g   -6.057203     4Ag    -0.932637     4B1u   -0.703367  
       5Ag    -0.475607     2B2u   -0.444269     2B3u   -0.441511  
       2B2g   -0.294651  

    Beta Virtual:                                                         

       2B3g   -0.109529     5B1u    0.043567     6Ag     0.085682  
       3B2u    0.089304     3B3u    0.096136     6B1u    0.100652  
       7Ag     0.103087     3B3g    0.118747     3B2g    0.122637  
       1B1g    0.190785     8Ag     0.191959     7B1u    0.210514  
       4B2u    0.241706     4B3u    0.246864     9Ag     0.281535  
       1Au     0.306346     8B1u    0.307598     4B3g    0.373573  
       4B2g    0.376691     9B1u    0.378954     5B2u    0.445478  
       5B3u    0.461455     6B2u    0.548921    10Ag     0.558767  
       6B3u    0.560981    11Ag     0.561821    10B1u    0.563869  
       2B1g    0.570832     5B3g    0.575861    12Ag     0.577890  
       5B2g    0.586677     2Au     0.665258    11B1u    0.666239  
      13Ag     0.670420     7B3u    0.704187     7B2u    0.704316  
       6B3g    0.743630     6B2g    0.758354     3B1g    0.784661  
      14Ag     0.786869     7B2g    0.861080     7B3g    0.861302  
      12B1u    0.878900     8B2u    1.023476     8B3u    1.036804  
       3Au     1.063780    13B1u    1.064112    14B1u    1.106092  
       8B3g    1.223675     8B2g    1.236949    15Ag     1.318516  
      15B1u    1.441788     4B1g    1.775036    16Ag     1.775738  
       9B2u    1.796302    16B1u    1.813603     9B3u    1.817418  
       4Au     1.854107    17B1u    1.857040    17Ag     1.922673  
       9B3g    1.935749     9B2g    1.958424     5B1g    2.021075  
      18Ag     2.021121    19Ag     2.034714    10B2u    2.035293  
      10B3u    2.055809    11B2u    2.081374    12B2u    2.098965  
      11B3u    2.098965    12B3u    2.101291    10B2g    2.174039  
      10B3g    2.174325     5Au     2.335891    18B1u    2.336157  
      11B3g    2.361090    11B2g    2.379950    19B1u    2.480178  
      12B3g    2.666372    20Ag     2.686346    12B2g    2.688962  
      20B1u    3.644709    21Ag     4.641537    21B1u    5.387263  

    Final Occupation by Irrep:
             Ag   B1g   B2g   B3g    Au   B1u   B2u   B3u 
    DOCC [     5,    0,    2,    1,    0,    4,    2,    2 ]
    SOCC [     0,    0,    0,    0,    0,    0,    0,    0 ]

  @DF-UKS Final Energy:  -796.35698564716085

   => Energetics <=

    Nuclear Repulsion Energy =             71.5876729198632802
    One-Electron Energy =               -1241.7994452332418405
    Two-Electron Energy =                 411.3299110400377572
    DFT Exchange-Correlation Energy =     -37.4751166990146842
    Empirical Dispersion Energy =          -0.0000076748054032
    VV10 Nonlocal Energy =                  0.0000000000000000
    Total Energy =                       -796.3569856471608546

  UHF NO Occupations:
  HONO-2 :    2B2g 2.0000000
  HONO-1 :    4 Ag 2.0000000
  HONO-0 :    5 Ag 2.0000000
  LUNO+0 :    6 Ag 0.0000000
  LUNO+1 :    3B2g 0.0000000
  LUNO+2 :    5B1u 0.0000000
  LUNO+3 :    4B2g 0.0000000


Computation Completed


Properties will be evaluated at   0.000000,   0.000000,   0.000000 [a0]

Properties computed using the SCF density matrix

  Nuclear Dipole Moment: [e a0]
     X:     0.0000      Y:     0.0000      Z:     0.0000

  Electronic Dipole Moment: [e a0]
     X:     0.0000      Y:     0.0000      Z:     0.0000

  Dipole Moment: [e a0]
     X:     0.0000      Y:     0.0000      Z:     0.0000     Total:     0.0000

  Dipole Moment: [D]
     X:     0.0000      Y:     0.0000      Z:     0.0000     Total:     0.0000


*** tstop() called on c1-9.compute.lan at Tue Feb  2 11:30:50 2021
Module time:
	user time   =       9.02 seconds =       0.15 minutes
	system time =       0.06 seconds =       0.00 minutes
	total time  =          9 seconds =       0.15 minutes
Total time:
	user time   =     126.83 seconds =       2.11 minutes
	system time =       1.61 seconds =       0.03 minutes
	total time  =        129 seconds =       2.15 minutes

*** tstart() called on c1-9.compute.lan
*** at Tue Feb  2 11:30:50 2021


         ------------------------------------------------------------
                                   SCF GRAD                          
                          Rob Parrish, Justin Turney,                
                       Andy Simmonett, and Alex Sokolov              
         ------------------------------------------------------------

  ==> Geometry <==

    Molecular point group: d2h
    Full point group: D_inf_h

    Geometry (in Angstrom), charge = 0, multiplicity = 1:

       Center              X                  Y                   Z               Mass       
    ------------   -----------------  -----------------  -----------------  -----------------
         S            0.000000000000     0.000000000000    -0.946178024834    31.972071174400
         S            0.000000000000     0.000000000000     0.946178024834    31.972071174400

  Nuclear repulsion =   71.587672919863280

  ==> Basis Set <==

  Basis Set: AUG-CC-PVTZ
    Blend: AUG-CC-PVTZ
    Number of shells: 32
    Number of basis function: 100
    Number of Cartesian functions: 118
    Spherical Harmonics?: true
    Max angular momentum: 3

  ==> DFJKGrad: Density-Fitted SCF Gradients <==

    Gradient:                    1
    J tasked:                  Yes
    K tasked:                  Yes
    wK tasked:                 Yes
    Omega:               2.000E-01
    OpenMP threads:              1
    Integrals threads:           1
    Memory [MiB]:             7152
    Schwarz Cutoff:          0E+00
    Fitting Condition:       1E-10

   => Auxiliary Basis Set <=

  Basis Set: (AUG-CC-PVTZ AUX)
    Blend: AUG-CC-PVTZ-JKFIT
    Number of shells: 84
    Number of basis function: 292
    Number of Cartesian functions: 360
    Spherical Harmonics?: true
    Max angular momentum: 4

  ==> DFT Potential <==

   => Composite Functional: WB97X-D <= 

    wB97X-D Hyb-GGA Exchange-Correlation Functional

    J.-D. Chai and M. Head-Gordon, Phys. Chem. Chem. Phys. 10, 6615 (2008)

    Deriv               =              1
    GGA                 =           TRUE
    Meta                =          FALSE

    Exchange Hybrid     =           TRUE
    MP2 Hybrid          =          FALSE

   => Exchange-Correlation Functionals <=

    1.0000   wB97D range-separated functional

   => Exact (HF) Exchange <=

    0.7780            HF,LR [omega = 0.2000]
    0.2220               HF 

   => Molecular Quadrature <=

    Radial Scheme          =       TREUTLER
    Pruning Scheme         =           NONE
    Nuclear Scheme         =       TREUTLER

    BS radius alpha        =              1
    Pruning alpha          =              1
    Radial Points          =             99
    Spherical Points       =            590
    Total Points           =         113350
    Total Blocks           =            980
    Max Points             =            256
    Max Functions          =            100
    Weights Tolerance      =       1.00E-15


  -Total Gradient:
     Atom            X                  Y                   Z
    ------   -----------------  -----------------  -----------------
       1       -0.000000000000     0.000000000000     0.000425864731
       2        0.000000000000     0.000000000000    -0.000425864731


*** tstop() called on c1-9.compute.lan at Tue Feb  2 11:30:54 2021
Module time:
	user time   =       4.06 seconds =       0.07 minutes
	system time =       0.03 seconds =       0.00 minutes
	total time  =          4 seconds =       0.07 minutes
Total time:
	user time   =     130.90 seconds =       2.18 minutes
	system time =       1.64 seconds =       0.03 minutes
	total time  =        133 seconds =       2.22 minutes

         ----------------------------------------------------------
                                   FINDIF
                     R. A. King and Jonathon Misiewicz
         ---------------------------------------------------------

  Computing second-derivative from gradients using projected, 
  symmetry-adapted, cartesian coordinates.

  3 gradients passed in, including the reference geometry.
  Generating complete list of displacements from unique ones.


-------------------------------------------------------------


  ==> Harmonic Vibrational Analysis <==

  non-mass-weighted Hessian:       Symmetric? True   Hermitian? True   Lin Dep Dim?  5 (0)
  projection of translations (True) and rotations (True) removed 5 degrees of freedom (5)
  total projector:                 Symmetric? True   Hermitian? True   Lin Dep Dim?  5 (5)
  mass-weighted Hessian:           Symmetric? True   Hermitian? True   Lin Dep Dim?  5 (0)
  pre-proj  low-frequency mode:    0.0000  [cm^-1]
  pre-proj  low-frequency mode:    0.0000  [cm^-1]
  pre-proj  low-frequency mode:    0.0000  [cm^-1]
  pre-proj  low-frequency mode:    0.0000  [cm^-1]
  pre-proj  low-frequency mode:    0.0000  [cm^-1]
  pre-proj  all modes:['0.0000' '0.0000' '0.0000' '0.0000' '0.0000' '749.6244']
  projected mass-weighted Hessian: Symmetric? True   Hermitian? True   Lin Dep Dim?  5 (5)
  post-proj low-frequency mode:    0.0000i [cm^-1] (TR)
  post-proj low-frequency mode:    0.0000  [cm^-1] (TR)
  post-proj low-frequency mode:    0.0000  [cm^-1] (TR)
  post-proj low-frequency mode:    0.0000  [cm^-1] (TR)
  post-proj low-frequency mode:    0.0000  [cm^-1] (TR)
  post-proj  all modes:['0.0000i' '0.0000' '0.0000' '0.0000' '0.0000' '749.6244']

  Vibration                       6           
  Freq [cm^-1]                 749.6244       
  Irrep                           Ag          
  Reduced mass [u]             31.9721        
  Force const [mDyne/A]        10.5854        
  Turning point v=0 [a0]        0.0709        
  RMS dev v=0 [a0 u^1/2]        0.2834        
  Char temp [K]               1078.5426       
  ----------------------------------------------------------------------------------
      1   S                0.00  0.00  0.71   
      2   S                0.00  0.00 -0.71   

  ==> Thermochemistry Components <==

  Entropy, S
    Electronic S            0.000 [cal/(mol K)]        0.000 [J/(mol K)]       0.00000000 [mEh/K] (multiplicity = 1)
    Translational S        38.385 [cal/(mol K)]      160.603 [J/(mol K)]       0.06117054 [mEh/K] (mol. weight = 63.9441 [u], P = 101325.00 [Pa])
    Rotational S           13.640 [cal/(mol K)]       57.070 [J/(mol K)]       0.02173671 [mEh/K] (symmetry no. = 2)
    Vibrational S           0.252 [cal/(mol K)]        1.056 [J/(mol K)]       0.00040228 [mEh/K]
  Total S                  52.278 [cal/(mol K)]      218.729 [J/(mol K)]       0.08330953 [mEh/K]
  Correction S              0.000 [cal/(mol K)]        0.000 [J/(mol K)]       0.00000000 [mEh/K]

  Constant volume heat capacity, Cv
    Electronic Cv           0.000 [cal/(mol K)]        0.000 [J/(mol K)]       0.00000000 [mEh/K]
    Translational Cv        2.981 [cal/(mol K)]       12.472 [J/(mol K)]       0.00475022 [mEh/K]
    Rotational Cv           1.987 [cal/(mol K)]        8.314 [J/(mol K)]       0.00316681 [mEh/K]
    Vibrational Cv          0.737 [cal/(mol K)]        3.085 [J/(mol K)]       0.00117498 [mEh/K]
  Total Cv                  5.705 [cal/(mol K)]       23.871 [J/(mol K)]       0.00909201 [mEh/K]
  Correction Cv             0.000 [cal/(mol K)]        0.000 [J/(mol K)]       0.00000000 [mEh/K]

  Constant pressure heat capacity, Cp
    Electronic Cp           0.000 [cal/(mol K)]        0.000 [J/(mol K)]       0.00000000 [mEh/K]
    Translational Cp        4.968 [cal/(mol K)]       20.786 [J/(mol K)]       0.00791703 [mEh/K]
    Rotational Cp           1.987 [cal/(mol K)]        8.314 [J/(mol K)]       0.00316681 [mEh/K]
    Vibrational Cp          0.737 [cal/(mol K)]        3.085 [J/(mol K)]       0.00117498 [mEh/K]
  Total Cp                  7.693 [cal/(mol K)]       32.186 [J/(mol K)]       0.01225882 [mEh/K]
  Correction Cp             0.000 [cal/(mol K)]        0.000 [J/(mol K)]       0.00000000 [mEh/K]

  ==> Thermochemistry Energy Analysis <==

  Raw electronic energy, E0
  Total E0, Electronic energy at well bottom at 0 [K]                 -796.35698607 [Eh]

  Zero-point energy, ZPE_vib = Sum_i nu_i / 2
    Electronic ZPE          0.000 [kcal/mol]        0.000 [kJ/mol]       0.00000000 [Eh]
    Translational ZPE       0.000 [kcal/mol]        0.000 [kJ/mol]       0.00000000 [Eh]
    Rotational ZPE          0.000 [kcal/mol]        0.000 [kJ/mol]       0.00000000 [Eh]
    Vibrational ZPE         1.072 [kcal/mol]        4.484 [kJ/mol]       0.00170777 [Eh]         374.812 [cm^-1]
  Correction ZPE            1.072 [kcal/mol]        4.484 [kJ/mol]       0.00170777 [Eh]         374.812 [cm^-1]
  Total ZPE, Electronic energy at 0 [K]                               -796.35527830 [Eh]

  Thermal Energy, E (includes ZPE)
    Electronic E            0.000 [kcal/mol]        0.000 [kJ/mol]       0.00000000 [Eh]
    Translational E         0.889 [kcal/mol]        3.718 [kJ/mol]       0.00141628 [Eh]
    Rotational E            0.592 [kcal/mol]        2.479 [kJ/mol]       0.00094418 [Eh]
    Vibrational E           1.131 [kcal/mol]        4.731 [kJ/mol]       0.00180201 [Eh]
  Correction E              2.612 [kcal/mol]       10.929 [kJ/mol]       0.00416247 [Eh]
  Total E, Electronic energy at  298.15 [K]                           -796.35282359 [Eh]

  Enthalpy, H_trans = E_trans + k_B * T
    Electronic H            0.000 [kcal/mol]        0.000 [kJ/mol]       0.00000000 [Eh]
    Translational H         1.481 [kcal/mol]        6.197 [kJ/mol]       0.00236046 [Eh]
    Rotational H            0.592 [kcal/mol]        2.479 [kJ/mol]       0.00094418 [Eh]
    Vibrational H           1.131 [kcal/mol]        4.731 [kJ/mol]       0.00180201 [Eh]
  Correction H              3.204 [kcal/mol]       13.408 [kJ/mol]       0.00510666 [Eh]
  Total H, Enthalpy at  298.15 [K]                                    -796.35187941 [Eh]

  Gibbs free energy, G = H - T * S
    Electronic G            0.000 [kcal/mol]        0.000 [kJ/mol]       0.00000000 [Eh]
    Translational G        -9.963 [kcal/mol]      -41.686 [kJ/mol]      -0.01587754 [Eh]
    Rotational G           -3.474 [kcal/mol]      -14.536 [kJ/mol]      -0.00553662 [Eh]
    Vibrational G           1.056 [kcal/mol]        4.416 [kJ/mol]       0.00168207 [Eh]
  Correction G            -12.382 [kcal/mol]      -51.807 [kJ/mol]      -0.01973208 [Eh]
  Total G, Free enthalpy at  298.15 [K]                               -796.37671815 [Eh]

    Psi4 stopped on: Tuesday, 02 February 2021 11:30AM
    Psi4 wall time for execution: 0:02:13.08

*** Psi4 exiting successfully. Buy a developer a beer!
