
    -----------------------------------------------------------------------
          Psi4: An Open-Source Ab Initio Electronic Structure Package
                               Psi4 1.4a2.dev191 

                         Git: Rev {master} 0ab5346 


    R. M. Parrish, L. A. Burns, D. G. A. Smith, A. C. Simmonett,
    A. E. DePrince III, E. G. Hohenstein, U. Bozkaya, A. Yu. Sokolov,
    R. Di Remigio, R. M. Richard, J. F. Gonthier, A. M. James,
    H. R. McAlexander, A. Kumar, M. Saitow, X. Wang, B. P. Pritchard,
    P. Verma, H. F. Schaefer III, K. Patkowski, R. A. King, E. F. Valeev,
    F. A. Evangelista, J. M. Turney, T. D. Crawford, and C. D. Sherrill,
    J. Chem. Theory Comput. 13(7) pp 3185--3197 (2017).
    (doi: 10.1021/acs.jctc.7b00174)


                         Additional Contributions by
    P. Kraus, H. Kruse, M. H. Lechner, M. C. Schieber, R. A. Shaw,
    A. Alenaizan, R. Galvelis, Z. L. Glick, S. Lehtola, and J. P. Misiewicz

    -----------------------------------------------------------------------


    Psi4 started on: Tuesday, 02 February 2021 02:39PM

    Process ID: 108096
    Host:       c2-18.compute.lan
    PSIDATADIR: /apps/gb/PSI4/1.4.0/share/psi4
    Memory:     500.0 MiB
    Threads:    1
    
  ==> Input File <==

--------------------------------------------------------------------------
memory 10 GB

molecule  {
-2 3
S
S 1 r1
S 1 r2 2 a1
r1 = 2.0
r2 = 2.1
a1 = 120.0
}

set {
reference uks
basis aug-cc-pvtz
g_convergence gau_verytight
dft_spherical_points 590
dft_radial_points 99
}

optimize('wb97x-d')
frequencies('wb97x-d')

--------------------------------------------------------------------------

  Memory set to   9.313 GiB by Python driver.
gradient() will perform analytic gradient computation.

*** tstart() called on c2-18.compute.lan
*** at Tue Feb  2 14:39:46 2021

   => Loading Basis Set <=

    Name: AUG-CC-PVTZ
    Role: ORBITAL
    Keyword: BASIS
    atoms 1-3 entry S          line   906 file /apps/gb/PSI4/1.4.0/share/psi4/basis/aug-cc-pvtz.gbs 

   => WB97X-D: Empirical Dispersion <=

    Chai and Head-Gordon Dispersion Correction
    Chai, J.-D.; Head-Gordon, M. (2010), J. Chem. Phys., 132: 6615-6620

        s6 =       1.000000


         ---------------------------------------------------------
                                   SCF
               by Justin Turney, Rob Parrish, Andy Simmonett
                          and Daniel G. A. Smith
                              UKS Reference
                        1 Threads,   9536 MiB Core
         ---------------------------------------------------------

  ==> Geometry <==

    Molecular point group: cs
    Full point group: Cs

    Geometry (in Angstrom), charge = -2, multiplicity = 3:

       Center              X                  Y                   Z               Mass       
    ------------   -----------------  -----------------  -----------------  -----------------
         S            0.606217782649     0.316666666667     0.000000000000    31.972071174400
         S            0.606217782649    -1.683333333333     0.000000000000    31.972071174400
         S           -1.212435565298     1.366666666667     0.000000000000    31.972071174400

  Running in cs symmetry.

  Rotational constants: A =      0.75413  B =      0.08359  C =      0.07525 [cm^-1]
  Rotational constants: A =  22608.14975  B =   2506.04720  C =   2255.97858 [MHz]
  Nuclear repulsion =  170.392939668640480

  Charge       = -2
  Multiplicity = 3
  Electrons    = 50
  Nalpha       = 26
  Nbeta        = 24

  ==> Algorithm <==

  SCF Algorithm Type is DF.
  DIIS enabled.
  MOM disabled.
  Fractional occupation disabled.
  Guess Type is SAD.
  Energy threshold   = 1.00e-08
  Density threshold  = 1.00e-08
  Integral threshold = 0.00e+00

  ==> Primary Basis <==

  Basis Set: AUG-CC-PVTZ
    Blend: AUG-CC-PVTZ
    Number of shells: 48
    Number of basis function: 150
    Number of Cartesian functions: 177
    Spherical Harmonics?: true
    Max angular momentum: 3

  ==> DFT Potential <==

   => Composite Functional: WB97X-D <= 

    wB97X-D Hyb-GGA Exchange-Correlation Functional

    J.-D. Chai and M. Head-Gordon, Phys. Chem. Chem. Phys. 10, 6615 (2008)

    Deriv               =              1
    GGA                 =           TRUE
    Meta                =          FALSE

    Exchange Hybrid     =           TRUE
    MP2 Hybrid          =          FALSE

   => Exchange-Correlation Functionals <=

    1.0000   wB97D range-separated functional

   => Exact (HF) Exchange <=

    0.7780            HF,LR [omega = 0.2000]
    0.2220               HF 

   => Molecular Quadrature <=

    Radial Scheme          =       TREUTLER
    Pruning Scheme         =           NONE
    Nuclear Scheme         =       TREUTLER

    BS radius alpha        =              1
    Pruning alpha          =              1
    Radial Points          =             99
    Spherical Points       =            590
    Total Points           =         169927
    Total Blocks           =           1392
    Max Points             =            256
    Max Functions          =            150
    Weights Tolerance      =       1.00E-15

   => Loading Basis Set <=

    Name: (AUG-CC-PVTZ AUX)
    Role: JKFIT
    Keyword: DF_BASIS_SCF
    atoms 1-3 entry S          line   730 file /apps/gb/PSI4/1.4.0/share/psi4/basis/aug-cc-pvtz-jkfit.gbs 

  ==> Pre-Iterations <==

   -------------------------------------------------------
    Irrep   Nso     Nmo     Nalpha   Nbeta   Ndocc  Nsocc
   -------------------------------------------------------
     A'        99      99       0       0       0       0
     A"        51      51       0       0       0       0
   -------------------------------------------------------
    Total     150     150      26      24      24       2
   -------------------------------------------------------

  ==> Integral Setup <==

  ==> DiskDFJK: Density-Fitted J/K Matrices <==

    J tasked:                  Yes
    K tasked:                  Yes
    wK tasked:                 Yes
    Omega:               2.000E-01
    OpenMP threads:              1
    Integrals threads:           1
    Memory [MiB]:             6486
    Algorithm:                Core
    Integral Cache:           NONE
    Schwarz Cutoff:          1E-12
    Fitting Condition:       1E-10

   => Auxiliary Basis Set <=

  Basis Set: (AUG-CC-PVTZ AUX)
    Blend: AUG-CC-PVTZ-JKFIT
    Number of shells: 126
    Number of basis function: 438
    Number of Cartesian functions: 540
    Spherical Harmonics?: true
    Max angular momentum: 4

  Cached 100.0% of DFT collocation blocks in 0.650 [GiB].

  Minimum eigenvalue in the overlap matrix is 2.2915518432E-04.
  Using Symmetric Orthogonalization.

  SCF Guess: Superposition of Atomic Densities via on-the-fly atomic UHF.

  ==> Iterations <==

                           Total Energy        Delta E     RMS |[F,P]|

   @DF-UKS iter SAD: -1194.07218588701244   -1.19407e+03   0.00000e+00 
   @DF-UKS iter   1: -1194.27695016597022   -2.04764e-01   5.25424e-03 DIIS
   @DF-UKS iter   2: -1194.26543380133171    1.15164e-02   5.74951e-03 DIIS
   @DF-UKS iter   3: -1194.51316747836927   -2.47734e-01   9.06017e-04 DIIS
   @DF-UKS iter   4: -1194.52009019792331   -6.92272e-03   5.28850e-04 DIIS
   @DF-UKS iter   5: -1194.52281405354483   -2.72386e-03   1.84461e-04 DIIS
   @DF-UKS iter   6: -1194.52361818451595   -8.04131e-04   9.22377e-05 DIIS
   @DF-UKS iter   7: -1194.52417413887679   -5.55954e-04   6.27213e-05 DIIS
   @DF-UKS iter   8: -1194.52453305587892   -3.58917e-04   4.70951e-05 DIIS
   @DF-UKS iter   9: -1194.52489847234528   -3.65416e-04   3.61014e-05 DIIS
   @DF-UKS iter  10: -1194.52510403917768   -2.05567e-04   2.70709e-05 DIIS
   @DF-UKS iter  11: -1194.52526110122380   -1.57062e-04   2.73997e-05 DIIS
   @DF-UKS iter  12: -1194.52517920930404    8.18919e-05   2.65661e-05 DIIS
   @DF-UKS iter  13: -1194.52476185351679    4.17356e-04   2.18448e-05 DIIS
   @DF-UKS iter  14: -1194.52468325424752    7.85993e-05   1.56898e-05 DIIS
   @DF-UKS iter  15: -1194.52457226847605    1.10986e-04   1.07913e-05 DIIS
   @DF-UKS iter  16: -1194.52455078905723    2.14794e-05   5.88262e-06 DIIS
   @DF-UKS iter  17: -1194.52455188224849   -1.09319e-06   3.73575e-06 DIIS
   @DF-UKS iter  18: -1194.52455200694521   -1.24697e-07   2.11003e-06 DIIS
   @DF-UKS iter  19: -1194.52455228526242   -2.78317e-07   1.73973e-06 DIIS
   @DF-UKS iter  20: -1194.52455252243135   -2.37169e-07   1.16768e-06 DIIS
   @DF-UKS iter  21: -1194.52455263524598   -1.12815e-07   5.11579e-07 DIIS
   @DF-UKS iter  22: -1194.52455266471338   -2.94674e-08   2.75966e-07 DIIS
   @DF-UKS iter  23: -1194.52455267177947   -7.06609e-09   1.81032e-07 DIIS
   @DF-UKS iter  24: -1194.52455267490063   -3.12116e-09   1.01011e-07 DIIS
   @DF-UKS iter  25: -1194.52455267674850   -1.84787e-09   4.35654e-08 DIIS
   @DF-UKS iter  26: -1194.52455267692881   -1.80307e-10   3.72231e-08 DIIS
   @DF-UKS iter  27: -1194.52455267698770   -5.88898e-11   2.92349e-08 DIIS
   @DF-UKS iter  28: -1194.52455267683558    1.52113e-10   2.40403e-08 DIIS
   @DF-UKS iter  29: -1194.52455267651817    3.17414e-10   1.48423e-08 DIIS
   @DF-UKS iter  30: -1194.52455267637652    1.41654e-10   8.06244e-09 DIIS
  Energy and wave function converged.


  ==> Post-Iterations <==

   @Spin Contamination Metric:   8.812446597E-03
   @S^2 Expected:                2.000000000E+00
   @S^2 Observed:                2.008812447E+00
   @S   Expected:                1.000000000E+00
   @S   Observed:                1.000000000E+00

    Orbital Energies [Eh]
    ---------------------

    Alpha Occupied:                                                       

       1Ap   -88.809948     2Ap   -88.734521     3Ap   -88.725388  
       4Ap    -7.811744     5Ap    -7.742799     6Ap    -7.732237  
       7Ap    -5.760157     1App   -5.758839     8Ap    -5.755754  
       9Ap    -5.692720     2App   -5.689125    10Ap    -5.684424  
      11Ap    -5.682706     3App   -5.678195    12Ap    -5.673886  
      13Ap    -0.600486    14Ap    -0.473342    15Ap    -0.359169  
      16Ap    -0.161401     4App   -0.139100    17Ap    -0.135342  
       5App   -0.035948    18Ap    -0.013085    19Ap    -0.006466  
       6App    0.028257    20Ap     0.159653  

    Alpha Virtual:                                                        

      21Ap     0.240019    22Ap     0.286309    23Ap     0.306455  
       7App    0.321496    24Ap     0.323678     8App    0.334603  
       9App    0.336998    25Ap     0.340149    26Ap     0.341734  
      27Ap     0.373354    28Ap     0.386513    29Ap     0.447835  
      30Ap     0.459523    10App    0.485360    31Ap     0.505595  
      11App    0.510713    32Ap     0.545773    33Ap     0.559307  
      34Ap     0.565955    12App    0.579722    13App    0.581853  
      35Ap     0.585493    14App    0.623200    36Ap     0.628859  
      37Ap     0.639499    38Ap     0.657543    15App    0.674049  
      39Ap     0.700592    16App    0.747943    40Ap     0.777375  
      17App    0.824251    41Ap     0.841998    42Ap     0.847756  
      43Ap     0.854678    18App    0.866182    44Ap     0.869690  
      19App    0.870548    45Ap     0.876903    20App    0.885550  
      46Ap     0.892936    47Ap     0.930687    21App    0.942430  
      48Ap     0.943356    49Ap     0.952325    22App    0.961530  
      50Ap     0.969116    51Ap     0.982829    23App    1.002974  
      52Ap     1.005241    24App    1.048718    53Ap     1.049572  
      25App    1.064930    54Ap     1.105545    26App    1.109036  
      55Ap     1.112153    27App    1.126526    56Ap     1.152229  
      57Ap     1.171593    58Ap     1.177084    59Ap     1.257199  
      28App    1.264131    29App    1.303409    60Ap     1.330322  
      30App    1.365204    61Ap     1.371700    31App    1.441530  
      62Ap     1.447338    63Ap     1.457989    64Ap     1.491581  
      65Ap     1.512589    32App    1.531234    33App    1.540987  
      66Ap     1.642145    67Ap     1.653627    68Ap     1.719226  
      69Ap     1.826970    70Ap     2.122165    34App    2.134323  
      35App    2.159620    71Ap     2.168979    36App    2.196406  
      72Ap     2.201897    37App    2.212055    73Ap     2.212824  
      74Ap     2.244568    38App    2.278775    75Ap     2.293651  
      76Ap     2.318465    77Ap     2.328417    39App    2.335572  
      78Ap     2.343624    40App    2.344972    41App    2.366620  
      79Ap     2.369371    42App    2.391591    80Ap     2.400771  
      43App    2.414075    81Ap     2.454529    82Ap     2.475575  
      44App    2.492690    83Ap     2.497265    45App    2.506504  
      84Ap     2.514090    46App    2.579854    47App    2.587861  
      85Ap     2.590797    86Ap     2.602799    87Ap     2.622120  
      48App    2.624026    49App    2.669652    88Ap     2.709573  
      89Ap     2.727107    90Ap     2.779606    91Ap     2.796229  
      92Ap     2.830790    50App    2.868933    93Ap     2.881261  
      51App    2.933509    94Ap     3.046258    95Ap     3.925688  
      96Ap     4.027816    97Ap     5.080129    98Ap     5.490593  
      99Ap     5.948130  

    Beta Occupied:                                                        

       1Ap   -88.806373     2Ap   -88.732578     3Ap   -88.723448  
       4Ap    -7.807938     5Ap    -7.740711     6Ap    -7.730162  
       7Ap    -5.757836     8Ap    -5.752588     1App   -5.748453  
       9Ap    -5.691035     2App   -5.683048    10Ap    -5.682846  
      11Ap    -5.680697     3App   -5.672584    12Ap    -5.672333  
      13Ap    -0.583584    14Ap    -0.460104    15Ap    -0.332960  
      16Ap    -0.150548    17Ap    -0.124675     4App   -0.100490  
      18Ap    -0.004861    19Ap    -0.000123     5App    0.006284  

    Beta Virtual:                                                         

       6App    0.239700    20Ap     0.305280    21Ap     0.308858  
      22Ap     0.331466     7App    0.333914    23Ap     0.344441  
      24Ap     0.347255     8App    0.348810    25Ap     0.381901  
      26Ap     0.384611     9App    0.385882    27Ap     0.405576  
      28Ap     0.409706    29Ap     0.464882    30Ap     0.480060  
      10App    0.490377    31Ap     0.515034    11App    0.516260  
      32Ap     0.554562    33Ap     0.573293    34Ap     0.577699  
      12App    0.585950    13App    0.587726    35Ap     0.603252  
      36Ap     0.631206    14App    0.636059    37Ap     0.642275  
      38Ap     0.658334    15App    0.677368    39Ap     0.706461  
      16App    0.760247    40Ap     0.785168    17App    0.828601  
      41Ap     0.843036    42Ap     0.853534    43Ap     0.858680  
      44Ap     0.874987    18App    0.875595    19App    0.876916  
      45Ap     0.882720    20App    0.892206    46Ap     0.897749  
      47Ap     0.936264    48Ap     0.948044    21App    0.952093  
      49Ap     0.960724    22App    0.969342    50Ap     0.977687  
      51Ap     0.992547    52Ap     1.010242    23App    1.014423  
      24App    1.057154    53Ap     1.058931    25App    1.077378  
      54Ap     1.107671    26App    1.110631    55Ap     1.114452  
      27App    1.129870    56Ap     1.159639    57Ap     1.176916  
      58Ap     1.180937    59Ap     1.259537    28App    1.266641  
      29App    1.308357    60Ap     1.334556    30App    1.368693  
      61Ap     1.373974    31App    1.445913    62Ap     1.449313  
      63Ap     1.460424    64Ap     1.495915    65Ap     1.516559  
      32App    1.538348    33App    1.546786    66Ap     1.649664  
      67Ap     1.655494    68Ap     1.731061    69Ap     1.841835  
      70Ap     2.133601    34App    2.147786    35App    2.168874  
      71Ap     2.178709    36App    2.206411    72Ap     2.209766  
      73Ap     2.219555    37App    2.222501    74Ap     2.249357  
      38App    2.294548    75Ap     2.296338    76Ap     2.323466  
      77Ap     2.335529    39App    2.350909    78Ap     2.351038  
      40App    2.360573    79Ap     2.377267    41App    2.377539  
      42App    2.407391    80Ap     2.411407    43App    2.432376  
      81Ap     2.460201    82Ap     2.481984    44App    2.504672  
      83Ap     2.508070    45App    2.517654    84Ap     2.523489  
      46App    2.587843    85Ap     2.599637    47App    2.603738  
      86Ap     2.612991    87Ap     2.629618    48App    2.639356  
      49App    2.684450    88Ap     2.720899    89Ap     2.735556  
      90Ap     2.786088    91Ap     2.801547    92Ap     2.836696  
      50App    2.883069    93Ap     2.887947    51App    2.948760  
      94Ap     3.050878    95Ap     3.932833    96Ap     4.033689  
      97Ap     5.087692    98Ap     5.497094    99Ap     5.956968  

    Final Occupation by Irrep:
             Ap   App 
    DOCC [    19,    5 ]
    SOCC [     1,    1 ]

  @DF-UKS Final Energy: -1194.52455267637652

   => Energetics <=

    Nuclear Repulsion Energy =            170.3929396686404800
    One-Electron Energy =               -2005.7601033674468454
    Two-Electron Energy =                 697.2110904858851654
    DFT Exchange-Correlation Energy =     -56.3681999035826493
    Empirical Dispersion Energy =          -0.0002795598724586
    VV10 Nonlocal Energy =                  0.0000000000000000
    Total Energy =                      -1194.5245526763760608

  UHF NO Occupations:
  HONO-2 :    5App 1.9984788
  HONO-1 :    6App 1.0000000
  HONO-0 :   20 Ap 1.0000000
  LUNO+0 :    7App 0.0015212
  LUNO+1 :    8App 0.0009375
  LUNO+2 :   21 Ap 0.0008792
  LUNO+3 :   22 Ap 0.0005156


Computation Completed


Properties will be evaluated at   0.000000,   0.000000,   0.000000 [a0]

Properties computed using the SCF density matrix

  Nuclear Dipole Moment: [e a0]
     X:     0.0000      Y:    -0.0000      Z:     0.0000

  Electronic Dipole Moment: [e a0]
     X:     0.0094      Y:    -0.4574      Z:     0.0000

  Dipole Moment: [e a0]
     X:     0.0094      Y:    -0.4574      Z:     0.0000     Total:     0.4575

  Dipole Moment: [D]
     X:     0.0238      Y:    -1.1625      Z:     0.0000     Total:     1.1628


*** tstop() called on c2-18.compute.lan at Tue Feb  2 14:45:59 2021
Module time:
	user time   =     176.74 seconds =       2.95 minutes
	system time =      60.28 seconds =       1.00 minutes
	total time  =        373 seconds =       6.22 minutes
Total time:
	user time   =     176.74 seconds =       2.95 minutes
	system time =      60.28 seconds =       1.00 minutes
	total time  =        373 seconds =       6.22 minutes

*** tstart() called on c2-18.compute.lan
*** at Tue Feb  2 14:45:59 2021


         ------------------------------------------------------------
                                   SCF GRAD                          
                          Rob Parrish, Justin Turney,                
                       Andy Simmonett, and Alex Sokolov              
         ------------------------------------------------------------

  ==> Geometry <==

    Molecular point group: cs
    Full point group: Cs

    Geometry (in Angstrom), charge = -2, multiplicity = 3:

       Center              X                  Y                   Z               Mass       
    ------------   -----------------  -----------------  -----------------  -----------------
         S            0.606217782649     0.316666666667     0.000000000000    31.972071174400
         S            0.606217782649    -1.683333333333     0.000000000000    31.972071174400
         S           -1.212435565298     1.366666666667     0.000000000000    31.972071174400

  Nuclear repulsion =  170.392939668640480

  ==> Basis Set <==

  Basis Set: AUG-CC-PVTZ
    Blend: AUG-CC-PVTZ
    Number of shells: 48
    Number of basis function: 150
    Number of Cartesian functions: 177
    Spherical Harmonics?: true
    Max angular momentum: 3

  ==> DFJKGrad: Density-Fitted SCF Gradients <==

    Gradient:                    1
    J tasked:                  Yes
    K tasked:                  Yes
    wK tasked:                 Yes
    Omega:               2.000E-01
    OpenMP threads:              1
    Integrals threads:           1
    Memory [MiB]:             7152
    Schwarz Cutoff:          0E+00
    Fitting Condition:       1E-10

   => Auxiliary Basis Set <=

  Basis Set: (AUG-CC-PVTZ AUX)
    Blend: AUG-CC-PVTZ-JKFIT
    Number of shells: 126
    Number of basis function: 438
    Number of Cartesian functions: 540
    Spherical Harmonics?: true
    Max angular momentum: 4

  ==> DFT Potential <==

   => Composite Functional: WB97X-D <= 

    wB97X-D Hyb-GGA Exchange-Correlation Functional

    J.-D. Chai and M. Head-Gordon, Phys. Chem. Chem. Phys. 10, 6615 (2008)

    Deriv               =              1
    GGA                 =           TRUE
    Meta                =          FALSE

    Exchange Hybrid     =           TRUE
    MP2 Hybrid          =          FALSE

   => Exchange-Correlation Functionals <=

    1.0000   wB97D range-separated functional

   => Exact (HF) Exchange <=

    0.7780            HF,LR [omega = 0.2000]
    0.2220               HF 

   => Molecular Quadrature <=

    Radial Scheme          =       TREUTLER
    Pruning Scheme         =           NONE
    Nuclear Scheme         =       TREUTLER

    BS radius alpha        =              1
    Pruning alpha          =              1
    Radial Points          =             99
    Spherical Points       =            590
    Total Points           =         169927
    Total Blocks           =           1392
    Max Points             =            256
    Max Functions          =            150
    Weights Tolerance      =       1.00E-15


  -Total Gradient:
     Atom            X                  Y                   Z
    ------   -----------------  -----------------  -----------------
       1        0.000705905026    -0.019992404372     0.000000000000
       2        0.003522371770     0.013689119712     0.000000000000
       3       -0.004222745489     0.006307202641     0.000000000000


*** tstop() called on c2-18.compute.lan at Tue Feb  2 14:46:30 2021
Module time:
	user time   =      19.20 seconds =       0.32 minutes
	system time =       0.13 seconds =       0.00 minutes
	total time  =         31 seconds =       0.52 minutes
Total time:
	user time   =     195.94 seconds =       3.27 minutes
	system time =      60.41 seconds =       1.01 minutes
	total time  =        404 seconds =       6.73 minutes

			-----------------------------------------
			 OPTKING 2.0: for geometry optimizations 
			  - R.A. King,  Bethel University        
			-----------------------------------------

	Internal coordinates to be generated automatically.
	Detected frag 1 with atoms:  1 2 3
	---Fragment 1 Bond Connectivity---
	 1 : 2 3
	 2 : 1
	 3 : 1

	---Fragment 1 Geometry and Gradient---
	 S           1.1455855816        0.5984132731        0.0000000000
	 S           1.1455855816       -3.1810389779        0.0000000000
	 S          -2.2911711632        2.5826257048        0.0000000000
	             0.0007059050       -0.0199924044        0.0000000000
	             0.0035223718        0.0136891197        0.0000000000
	            -0.0042227455        0.0063072026        0.0000000000

	Previous optimization step data not found.  Starting new optimization.

	---Fragment 1 Intrafragment Coordinates---
	 - Coordinate -           - BOHR/RAD -       - ANG/DEG -
	 R(1,2)           =         3.779452	       2.000000
	 R(1,3)           =         3.968425	       2.100000
	 B(2,1,3)         =         2.094395	     120.000000

	Current energy   :     -1194.5245526764

	Generating empirical Hessian (Schlegel '84) for each fragment.
	Taking RFO optimization step.
	Going to follow RFO solution 1.
	Using RFO vector 1.
	Norm of target step-size    0.07120
	Projected energy change by RFO approximation:        -0.0010605607

	Back-transformation to cartesian coordinates...
	Successfully converged to displaced geometry.

	--- Internal Coordinate Step in ANG or DEG, aJ/ANG or AJ/DEG ---
	 ---------------------------------------------------------------------------
	   Coordinate                Previous        Force       Change         New 
	   ----------                --------       ------       ------       ------
	    1 R(1,2)          =      2.000000     0.112764     0.020853     2.020853
	    2 R(1,3)          =      2.100000    -0.056113    -0.014186     2.085814
	    3 B(2,1,3)        =    120.000000    -0.001012    -3.030361   116.969639
	 ---------------------------------------------------------------------------
	Successfully symmetrized geometry.

  ==> Convergence Check <==

  Measures of convergence in internal coordinates in au.
  Criteria marked as inactive (o), active & met (*), and active & unmet ( ).
  --------------------------------------------------------------------------------------------- ~
   Step     Total Energy     Delta E     MAX Force     RMS Force      MAX Disp      RMS Disp    ~
  --------------------------------------------------------------------------------------------- ~
    Convergence Criteria             o    2.00e-06 *    1.00e-06 *    6.00e-06 *    4.00e-06 *  ~
  --------------------------------------------------------------------------------------------- ~
      1   -1194.52455268   -1.19e+03 o    1.37e-02      1.17e-02      5.29e-02      4.11e-02    ~
  ---------------------------------------------------------------------------------------------

	Writing optimization data to binary file.
	Structure for next step:
	Cartesian Geometry (in Angstrom)
	    S     0.6281683297   0.3431612448   0.0000000000
	    S     0.5791429659  -1.6770971059   0.0000000000
	    S    -1.2073112956   1.3339358611   0.0000000000
			--------------------------
			 OPTKING Finished Execution 
			--------------------------

    Structure for next step:
    Molecular point group: cs
    Full point group: Cs

    Geometry (in Angstrom), charge = -2, multiplicity = 3:

    S       
    S             1          r1
    S             1          r2      2          a1

    a1        =  116.9696387698
    r1        =    2.0208531173
    r2        =    2.0858139489

gradient() will perform analytic gradient computation.

*** tstart() called on c2-18.compute.lan
*** at Tue Feb  2 14:46:30 2021

   => Loading Basis Set <=

    Name: AUG-CC-PVTZ
    Role: ORBITAL
    Keyword: BASIS
    atoms 1-3 entry S          line   906 file /apps/gb/PSI4/1.4.0/share/psi4/basis/aug-cc-pvtz.gbs 

   => WB97X-D: Empirical Dispersion <=

    Chai and Head-Gordon Dispersion Correction
    Chai, J.-D.; Head-Gordon, M. (2010), J. Chem. Phys., 132: 6615-6620

        s6 =       1.000000


         ---------------------------------------------------------
                                   SCF
               by Justin Turney, Rob Parrish, Andy Simmonett
                          and Daniel G. A. Smith
                              UKS Reference
                        1 Threads,   9536 MiB Core
         ---------------------------------------------------------

  ==> Geometry <==

    Molecular point group: cs
    Full point group: Cs

    Geometry (in Angstrom), charge = -2, multiplicity = 3:

       Center              X                  Y                   Z               Mass       
    ------------   -----------------  -----------------  -----------------  -----------------
         S            0.619658454114     0.358299448293     0.000000000000    31.972071174400
         S            0.619658454114    -1.662553669029     0.000000000000    31.972071174400
         S           -1.239316908228     1.304254220736     0.000000000000    31.972071174400

  Running in cs symmetry.

  Rotational constants: A =      0.68705  B =      0.08601  C =      0.07644 [cm^-1]
  Rotational constants: A =  20597.26937  B =   2578.62208  C =   2291.71653 [MHz]
  Nuclear repulsion =  170.677006955778381

  Charge       = -2
  Multiplicity = 3
  Electrons    = 50
  Nalpha       = 26
  Nbeta        = 24

  ==> Algorithm <==

  SCF Algorithm Type is DF.
  DIIS enabled.
  MOM disabled.
  Fractional occupation disabled.
  Guess Type is READ.
  Energy threshold   = 1.00e-08
  Density threshold  = 1.00e-08
  Integral threshold = 0.00e+00

  ==> Primary Basis <==

  Basis Set: AUG-CC-PVTZ
    Blend: AUG-CC-PVTZ
    Number of shells: 48
    Number of basis function: 150
    Number of Cartesian functions: 177
    Spherical Harmonics?: true
    Max angular momentum: 3

  ==> DFT Potential <==

   => Composite Functional: WB97X-D <= 

    wB97X-D Hyb-GGA Exchange-Correlation Functional

    J.-D. Chai and M. Head-Gordon, Phys. Chem. Chem. Phys. 10, 6615 (2008)

    Deriv               =              1
    GGA                 =           TRUE
    Meta                =          FALSE

    Exchange Hybrid     =           TRUE
    MP2 Hybrid          =          FALSE

   => Exchange-Correlation Functionals <=

    1.0000   wB97D range-separated functional

   => Exact (HF) Exchange <=

    0.7780            HF,LR [omega = 0.2000]
    0.2220               HF 

   => Molecular Quadrature <=

    Radial Scheme          =       TREUTLER
    Pruning Scheme         =           NONE
    Nuclear Scheme         =       TREUTLER

    BS radius alpha        =              1
    Pruning alpha          =              1
    Radial Points          =             99
    Spherical Points       =            590
    Total Points           =         169956
    Total Blocks           =           1386
    Max Points             =            256
    Max Functions          =            150
    Weights Tolerance      =       1.00E-15

   => Loading Basis Set <=

    Name: (AUG-CC-PVTZ AUX)
    Role: JKFIT
    Keyword: DF_BASIS_SCF
    atoms 1-3 entry S          line   730 file /apps/gb/PSI4/1.4.0/share/psi4/basis/aug-cc-pvtz-jkfit.gbs 

   => Loading Basis Set <=

    Name: AUG-CC-PVTZ
    Role: ORBITAL
    Keyword: BASIS
    atoms 1-3 entry S          line   906 file /apps/gb/PSI4/1.4.0/share/psi4/basis/aug-cc-pvtz.gbs 

  Reading orbitals from file 180, no projection.

  ==> Pre-Iterations <==

   -------------------------------------------------------
    Irrep   Nso     Nmo     Nalpha   Nbeta   Ndocc  Nsocc
   -------------------------------------------------------
     A'        99      99       0       0       0       0
     A"        51      51       0       0       0       0
   -------------------------------------------------------
    Total     150     150      26      24      24       2
   -------------------------------------------------------

  ==> Integral Setup <==

  ==> DiskDFJK: Density-Fitted J/K Matrices <==

    J tasked:                  Yes
    K tasked:                  Yes
    wK tasked:                 Yes
    Omega:               2.000E-01
    OpenMP threads:              1
    Integrals threads:           1
    Memory [MiB]:             6486
    Algorithm:                Core
    Integral Cache:           NONE
    Schwarz Cutoff:          1E-12
    Fitting Condition:       1E-10

   => Auxiliary Basis Set <=

  Basis Set: (AUG-CC-PVTZ AUX)
    Blend: AUG-CC-PVTZ-JKFIT
    Number of shells: 126
    Number of basis function: 438
    Number of Cartesian functions: 540
    Spherical Harmonics?: true
    Max angular momentum: 4

  Cached 100.0% of DFT collocation blocks in 0.651 [GiB].

  Minimum eigenvalue in the overlap matrix is 2.4166448005E-04.
  Using Symmetric Orthogonalization.

  SCF Guess: Orbitals guess was supplied from a previous computation.

  ==> Iterations <==

                           Total Energy        Delta E     RMS |[F,P]|

   @DF-UKS iter   0: -1194.54503842546205   -1.19455e+03   3.44973e-03 
   @DF-UKS iter   1: -1194.52406301273504    2.09754e-02   2.90454e-04 DIIS
   @DF-UKS iter   2: -1194.52472503838271   -6.62026e-04   3.01215e-04 DIIS
   @DF-UKS iter   3: -1194.52550442382835   -7.79385e-04   6.07893e-05 DIIS
   @DF-UKS iter   4: -1194.52561407037865   -1.09647e-04   3.58545e-05 DIIS
   @DF-UKS iter   5: -1194.52568224968172   -6.81793e-05   1.70200e-05 DIIS
   @DF-UKS iter   6: -1194.52571775227170   -3.55026e-05   1.09941e-05 DIIS
   @DF-UKS iter   7: -1194.52574079667647   -2.30444e-05   9.62594e-06 DIIS
   @DF-UKS iter   8: -1194.52575398823956   -1.31916e-05   8.45680e-06 DIIS
   @DF-UKS iter   9: -1194.52577057673375   -1.65885e-05   8.71999e-06 DIIS
   @DF-UKS iter  10: -1194.52575665661448    1.39201e-05   8.35393e-06 DIIS
   @DF-UKS iter  11: -1194.52571020894584    4.64477e-05   5.91338e-06 DIIS
   @DF-UKS iter  12: -1194.52569392799842    1.62809e-05   3.62576e-06 DIIS
   @DF-UKS iter  13: -1194.52568999975688    3.92824e-06   1.80966e-06 DIIS
   @DF-UKS iter  14: -1194.52568945104667    5.48710e-07   7.22057e-07 DIIS
   @DF-UKS iter  15: -1194.52568947204850   -2.10018e-08   3.29269e-07 DIIS
   @DF-UKS iter  16: -1194.52568948311978   -1.10713e-08   1.66011e-07 DIIS
   @DF-UKS iter  17: -1194.52568948529779   -2.17801e-09   1.18851e-07 DIIS
   @DF-UKS iter  18: -1194.52568948626322   -9.65429e-10   7.80034e-08 DIIS
   @DF-UKS iter  19: -1194.52568948675912   -4.95902e-10   3.81761e-08 DIIS
   @DF-UKS iter  20: -1194.52568948697945   -2.20325e-10   2.63510e-08 DIIS
   @DF-UKS iter  21: -1194.52568948702992   -5.04770e-11   1.39580e-08 DIIS
   @DF-UKS iter  22: -1194.52568948704175   -1.18234e-11   7.87726e-09 DIIS
  Energy and wave function converged.


  ==> Post-Iterations <==

   @Spin Contamination Metric:   8.297561007E-03
   @S^2 Expected:                2.000000000E+00
   @S^2 Observed:                2.008297561E+00
   @S   Expected:                1.000000000E+00
   @S   Observed:                1.000000000E+00

    Orbital Energies [Eh]
    ---------------------

    Alpha Occupied:                                                       

       1Ap   -88.815270     2Ap   -88.735907     3Ap   -88.729970  
       4Ap    -7.816718     5Ap    -7.743829     6Ap    -7.736977  
       7Ap    -5.765086     1App   -5.763766     8Ap    -5.760843  
       9Ap    -5.693882     2App   -5.690117    10Ap    -5.687396  
      11Ap    -5.685397     3App   -5.682989    12Ap    -5.678566  
      13Ap    -0.602021    14Ap    -0.475243    15Ap    -0.363093  
      16Ap    -0.162857     4App   -0.141205    17Ap    -0.138463  
       5App   -0.038098    18Ap    -0.014292    19Ap    -0.010755  
       6App    0.024451    20Ap     0.159614  

    Alpha Virtual:                                                        

      21Ap     0.239528    22Ap     0.282620    23Ap     0.309339  
       7App    0.320908    24Ap     0.321120     8App    0.333264  
       9App    0.334665    25Ap     0.339271    26Ap     0.340475  
      27Ap     0.372548    28Ap     0.379400    29Ap     0.446841  
      30Ap     0.457164    10App    0.485134    31Ap     0.508231  
      11App    0.508355    32Ap     0.545724    33Ap     0.557464  
      34Ap     0.560745    12App    0.575854    35Ap     0.580799  
      13App    0.582851    14App    0.621169    36Ap     0.629565  
      37Ap     0.635961    38Ap     0.656395    15App    0.670109  
      39Ap     0.698288    16App    0.746477    40Ap     0.779023  
      17App    0.824342    41Ap     0.839750    42Ap     0.848068  
      43Ap     0.854075    18App    0.863921    19App    0.865104  
      44Ap     0.866575    45Ap     0.872405    20App    0.879945  
      46Ap     0.891418    47Ap     0.923485    21App    0.939834  
      48Ap     0.943435    49Ap     0.949287    22App    0.960753  
      50Ap     0.969029    51Ap     0.980693    52Ap     0.999775  
      23App    1.003915    24App    1.049552    53Ap     1.050850  
      25App    1.057911    54Ap     1.106255    55Ap     1.109059  
      26App    1.110788    27App    1.119689    56Ap     1.143685  
      57Ap     1.167159    58Ap     1.179280    59Ap     1.259599  
      28App    1.273182    29App    1.300839    60Ap     1.330115  
      30App    1.356892    61Ap     1.361942    31App    1.438357  
      62Ap     1.448722    63Ap     1.455033    64Ap     1.484832  
      65Ap     1.512359    32App    1.526913    33App    1.529040  
      66Ap     1.633906    67Ap     1.639188    68Ap     1.717523  
      69Ap     1.821796    70Ap     2.121356    34App    2.133778  
      35App    2.156488    71Ap     2.168737    36App    2.196935  
      72Ap     2.198563    37App    2.209012    73Ap     2.212170  
      74Ap     2.234355    38App    2.278051    75Ap     2.287553  
      76Ap     2.316682    77Ap     2.328536    39App    2.331699  
      78Ap     2.338024    40App    2.338861    41App    2.357432  
      79Ap     2.366708    42App    2.391770    80Ap     2.399146  
      43App    2.412196    81Ap     2.458016    82Ap     2.470673  
      44App    2.490294    83Ap     2.499011    45App    2.503982  
      84Ap     2.515509    46App    2.579807    47App    2.587845  
      85Ap     2.590212    86Ap     2.609498    48App    2.612346  
      87Ap     2.620083    49App    2.659704    88Ap     2.703535  
      89Ap     2.733561    90Ap     2.765556    91Ap     2.788270  
      92Ap     2.834041    93Ap     2.869160    50App    2.875118  
      51App    2.916243    94Ap     3.024178    95Ap     3.939320  
      96Ap     4.011384    97Ap     5.032182    98Ap     5.489121  
      99Ap     5.940893  

    Beta Occupied:                                                        

       1Ap   -88.811814     2Ap   -88.734013     3Ap   -88.728105  
       4Ap    -7.813051     5Ap    -7.741800     6Ap    -7.734983  
       7Ap    -5.762838     8Ap    -5.757970     1App   -5.753505  
       9Ap    -5.692280    10Ap    -5.685626     2App   -5.684130  
      11Ap    -5.683880     3App   -5.677360    12Ap    -5.677086  
      13Ap    -0.585695    14Ap    -0.462568    15Ap    -0.337520  
      16Ap    -0.152657    17Ap    -0.128564     4App   -0.102853  
      18Ap    -0.007347    19Ap    -0.004212     5App    0.003957  

    Beta Virtual:                                                         

       6App    0.235942    20Ap     0.305946    21Ap     0.308439  
      22Ap     0.332419     7App    0.333555    23Ap     0.345528  
      24Ap     0.347300     8App    0.348653    25Ap     0.382607  
      26Ap     0.385515     9App    0.389280    27Ap     0.402400  
      28Ap     0.415624    29Ap     0.465252    30Ap     0.480263  
      10App    0.490481    11App    0.513843    31Ap     0.518229  
      32Ap     0.555916    33Ap     0.571590    34Ap     0.573478  
      12App    0.582863    13App    0.588255    35Ap     0.601662  
      36Ap     0.633258    14App    0.634825    37Ap     0.639036  
      38Ap     0.658313    15App    0.673326    39Ap     0.703952  
      16App    0.759218    40Ap     0.786595    17App    0.828661  
      41Ap     0.840108    42Ap     0.854927    43Ap     0.859262  
      18App    0.871484    44Ap     0.871634    19App    0.873556  
      45Ap     0.878235    20App    0.886626    46Ap     0.896641  
      47Ap     0.929484    48Ap     0.948702    21App    0.949346  
      49Ap     0.957889    22App    0.968584    50Ap     0.976912  
      51Ap     0.990746    52Ap     1.004742    23App    1.015411  
      24App    1.057545    53Ap     1.059740    25App    1.070236  
      54Ap     1.108471    55Ap     1.111289    26App    1.112339  
      27App    1.122973    56Ap     1.152033    57Ap     1.171973  
      58Ap     1.182465    59Ap     1.261413    28App    1.275516  
      29App    1.305823    60Ap     1.334229    30App    1.360367  
      61Ap     1.364292    31App    1.442637    62Ap     1.450949  
      63Ap     1.457121    64Ap     1.489374    65Ap     1.516337  
      32App    1.533152    33App    1.535584    66Ap     1.640341  
      67Ap     1.642030    68Ap     1.729336    69Ap     1.837029  
      70Ap     2.132349    34App    2.146695    35App    2.165615  
      71Ap     2.178132    36App    2.206731    72Ap     2.207145  
      73Ap     2.217856    37App    2.219085    74Ap     2.238961  
      75Ap     2.289847    38App    2.293687    76Ap     2.321169  
      77Ap     2.335448    78Ap     2.345725    39App    2.346516  
      40App    2.354492    41App    2.368399    79Ap     2.373954  
      42App    2.408989    80Ap     2.409863    43App    2.428571  
      81Ap     2.463923    82Ap     2.477224    44App    2.502028  
      83Ap     2.509121    45App    2.514995    84Ap     2.524272  
      46App    2.587963    85Ap     2.599533    47App    2.602902  
      86Ap     2.618059    87Ap     2.627434    48App    2.628058  
      49App    2.673534    88Ap     2.715657    89Ap     2.741493  
      90Ap     2.771549    91Ap     2.793611    92Ap     2.840774  
      93Ap     2.873703    50App    2.889162    51App    2.931181  
      94Ap     3.028497    95Ap     3.945762    96Ap     4.017012  
      97Ap     5.039724    98Ap     5.495670    99Ap     5.949900  

    Final Occupation by Irrep:
             Ap   App 
    DOCC [    19,    5 ]
    SOCC [     1,    1 ]

  @DF-UKS Final Energy: -1194.52568948704175

   => Energetics <=

    Nuclear Repulsion Energy =            170.6770069557783813
    One-Electron Energy =               -2006.1722880328591145
    Two-Electron Energy =                 697.3318538317242883
    DFT Exchange-Correlation Energy =     -56.3619941705168088
    Empirical Dispersion Energy =          -0.0002680711686201
    VV10 Nonlocal Energy =                  0.0000000000000000
    Total Energy =                      -1194.5256894870419728

  UHF NO Occupations:
  HONO-2 :    5App 1.9985167
  HONO-1 :    6App 1.0000000
  HONO-0 :   20 Ap 1.0000000
  LUNO+0 :    7App 0.0014833
  LUNO+1 :    8App 0.0009296
  LUNO+2 :   21 Ap 0.0006763
  LUNO+3 :   22 Ap 0.0005148


Computation Completed


Properties will be evaluated at   0.000000,   0.000000,   0.000000 [a0]

Properties computed using the SCF density matrix

  Nuclear Dipole Moment: [e a0]
     X:     0.0000      Y:     0.0000      Z:     0.0000

  Electronic Dipole Moment: [e a0]
     X:    -0.3179      Y:    -0.4915      Z:     0.0000

  Dipole Moment: [e a0]
     X:    -0.3179      Y:    -0.4915      Z:     0.0000     Total:     0.5854

  Dipole Moment: [D]
     X:    -0.8081      Y:    -1.2493      Z:     0.0000     Total:     1.4879


*** tstop() called on c2-18.compute.lan at Tue Feb  2 14:49:44 2021
Module time:
	user time   =     132.73 seconds =       2.21 minutes
	system time =       0.79 seconds =       0.01 minutes
	total time  =        194 seconds =       3.23 minutes
Total time:
	user time   =     328.69 seconds =       5.48 minutes
	system time =      61.21 seconds =       1.02 minutes
	total time  =        598 seconds =       9.97 minutes

*** tstart() called on c2-18.compute.lan
*** at Tue Feb  2 14:49:44 2021


         ------------------------------------------------------------
                                   SCF GRAD                          
                          Rob Parrish, Justin Turney,                
                       Andy Simmonett, and Alex Sokolov              
         ------------------------------------------------------------

  ==> Geometry <==

    Molecular point group: cs
    Full point group: Cs

    Geometry (in Angstrom), charge = -2, multiplicity = 3:

       Center              X                  Y                   Z               Mass       
    ------------   -----------------  -----------------  -----------------  -----------------
         S            0.619658454114     0.358299448293     0.000000000000    31.972071174400
         S            0.619658454114    -1.662553669029     0.000000000000    31.972071174400
         S           -1.239316908228     1.304254220736     0.000000000000    31.972071174400

  Nuclear repulsion =  170.677006955778381

  ==> Basis Set <==

  Basis Set: AUG-CC-PVTZ
    Blend: AUG-CC-PVTZ
    Number of shells: 48
    Number of basis function: 150
    Number of Cartesian functions: 177
    Spherical Harmonics?: true
    Max angular momentum: 3

  ==> DFJKGrad: Density-Fitted SCF Gradients <==

    Gradient:                    1
    J tasked:                  Yes
    K tasked:                  Yes
    wK tasked:                 Yes
    Omega:               2.000E-01
    OpenMP threads:              1
    Integrals threads:           1
    Memory [MiB]:             7152
    Schwarz Cutoff:          0E+00
    Fitting Condition:       1E-10

   => Auxiliary Basis Set <=

  Basis Set: (AUG-CC-PVTZ AUX)
    Blend: AUG-CC-PVTZ-JKFIT
    Number of shells: 126
    Number of basis function: 438
    Number of Cartesian functions: 540
    Spherical Harmonics?: true
    Max angular momentum: 4

  ==> DFT Potential <==

   => Composite Functional: WB97X-D <= 

    wB97X-D Hyb-GGA Exchange-Correlation Functional

    J.-D. Chai and M. Head-Gordon, Phys. Chem. Chem. Phys. 10, 6615 (2008)

    Deriv               =              1
    GGA                 =           TRUE
    Meta                =          FALSE

    Exchange Hybrid     =           TRUE
    MP2 Hybrid          =          FALSE

   => Exchange-Correlation Functionals <=

    1.0000   wB97D range-separated functional

   => Exact (HF) Exchange <=

    0.7780            HF,LR [omega = 0.2000]
    0.2220               HF 

   => Molecular Quadrature <=

    Radial Scheme          =       TREUTLER
    Pruning Scheme         =           NONE
    Nuclear Scheme         =       TREUTLER

    BS radius alpha        =              1
    Pruning alpha          =              1
    Radial Points          =             99
    Spherical Points       =            590
    Total Points           =         169956
    Total Blocks           =           1386
    Max Points             =            256
    Max Functions          =            150
    Weights Tolerance      =       1.00E-15


  -Total Gradient:
     Atom            X                  Y                   Z
    ------   -----------------  -----------------  -----------------
       1        0.004250228861    -0.010489684713     0.000000000000
       2        0.002067298381     0.005025890549     0.000000000000
       3       -0.006306572710     0.005456014381     0.000000000000


*** tstop() called on c2-18.compute.lan at Tue Feb  2 14:50:13 2021
Module time:
	user time   =      19.12 seconds =       0.32 minutes
	system time =       0.09 seconds =       0.00 minutes
	total time  =         29 seconds =       0.48 minutes
Total time:
	user time   =     347.81 seconds =       5.80 minutes
	system time =      61.30 seconds =       1.02 minutes
	total time  =        627 seconds =      10.45 minutes

			-----------------------------------------
			 OPTKING 2.0: for geometry optimizations 
			  - R.A. King,  Bethel University        
			-----------------------------------------

	Previous internal coordinate definitions found.
	---Fragment 1 Geometry and Gradient---
	 S           1.1709847696        0.6770878282        0.0000000000
	 S           1.1709847696       -3.1417711033        0.0000000000
	 S          -2.3419695392        2.4646832752        0.0000000000
	             0.0042502289       -0.0104896847        0.0000000000
	             0.0020672984        0.0050258905        0.0000000000
	            -0.0063065727        0.0054560144        0.0000000000

	---Fragment 1 Intrafragment Coordinates---
	 - Coordinate -           - BOHR/RAD -       - ANG/DEG -
	 R(1,2)           =         3.818859	       2.020853
	 R(1,3)           =         3.941617	       2.085814
	 B(2,1,3)         =         2.041505	     116.969639

	Current energy   :     -1194.5256894870

	Energy change for the previous step:
		Projected    :        -0.0010605607
		Actual       :        -0.0011368107
	Energy ratio indicates good step: Trust radius increased to 1.000e+00.


	Performing BFGS update.
	Previous computed or guess Hessian on step 1.
	Steps to be used in Hessian update: 1
	Taking RFO optimization step.
	Going to follow RFO solution 1.
	Using RFO vector 1.
	Norm of target step-size    0.13567
	Projected energy change by RFO approximation:        -0.0046227033

	Back-transformation to cartesian coordinates...
	Successfully converged to displaced geometry.

	--- Internal Coordinate Step in ANG or DEG, aJ/ANG or AJ/DEG ---
	 ---------------------------------------------------------------------------
	   Coordinate                Previous        Force       Change         New 
	   ----------                --------       ------       ------       ------
	    1 R(1,2)          =      2.020853     0.041434     0.025753     2.046606
	    2 R(1,3)          =      2.085814    -0.066736    -0.045184     2.040630
	    3 B(2,1,3)        =    116.969639    -0.000600    -5.358696   111.610943
	 ---------------------------------------------------------------------------
	Successfully symmetrized geometry.

  ==> Convergence Check <==

  Measures of convergence in internal coordinates in au.
  Criteria marked as inactive (o), active & met (*), and active & unmet ( ).
  ---------------------------------------------------------------------------------------------
   Step     Total Energy     Delta E     MAX Force     RMS Force      MAX Disp      RMS Disp   
  ---------------------------------------------------------------------------------------------
    Convergence Criteria             o    2.00e-06 *    1.00e-06 *    6.00e-06 *    4.00e-06 *
  ---------------------------------------------------------------------------------------------
      2   -1194.52568949   -1.14e-03 o    8.10e-03      7.14e-03      9.35e-02      7.83e-02    ~
  ---------------------------------------------------------------------------------------------

	Writing optimization data to binary file.
	Structure for next step:
	Cartesian Geometry (in Angstrom)
	    S     0.6494735509   0.4055305449   0.0000000000
	    S     0.5660115326  -1.6393728521   0.0000000000
	    S    -1.2154850835   1.2338423072   0.0000000000
			--------------------------
			 OPTKING Finished Execution 
			--------------------------

    Structure for next step:
    Molecular point group: cs
    Full point group: Cs

    Geometry (in Angstrom), charge = -2, multiplicity = 3:

    S       
    S             1          r1
    S             1          r2      2          a1

    a1        =  111.6109430226
    r1        =    2.0466059328
    r2        =    2.0406300782

gradient() will perform analytic gradient computation.

*** tstart() called on c2-18.compute.lan
*** at Tue Feb  2 14:50:13 2021

   => Loading Basis Set <=

    Name: AUG-CC-PVTZ
    Role: ORBITAL
    Keyword: BASIS
    atoms 1-3 entry S          line   906 file /apps/gb/PSI4/1.4.0/share/psi4/basis/aug-cc-pvtz.gbs 

   => WB97X-D: Empirical Dispersion <=

    Chai and Head-Gordon Dispersion Correction
    Chai, J.-D.; Head-Gordon, M. (2010), J. Chem. Phys., 132: 6615-6620

        s6 =       1.000000


         ---------------------------------------------------------
                                   SCF
               by Justin Turney, Rob Parrish, Andy Simmonett
                          and Daniel G. A. Smith
                              UKS Reference
                        1 Threads,   9536 MiB Core
         ---------------------------------------------------------

  ==> Geometry <==

    Molecular point group: cs
    Full point group: Cs

    Geometry (in Angstrom), charge = -2, multiplicity = 3:

       Center              X                  Y                   Z               Mass       
    ------------   -----------------  -----------------  -----------------  -----------------
         S            0.632395451456     0.431679179134     0.000000000000    31.972071174400
         S            0.632395451456    -1.614926753707     0.000000000000    31.972071174400
         S           -1.264790902911     1.183247574574     0.000000000000    31.972071174400

  Running in cs symmetry.

  Rotational constants: A =      0.59957  B =      0.09227  C =      0.07996 [cm^-1]
  Rotational constants: A =  17974.71004  B =   2766.07388  C =   2397.17921 [MHz]
  Nuclear repulsion =  172.649715831058018

  Charge       = -2
  Multiplicity = 3
  Electrons    = 50
  Nalpha       = 26
  Nbeta        = 24

  ==> Algorithm <==

  SCF Algorithm Type is DF.
  DIIS enabled.
  MOM disabled.
  Fractional occupation disabled.
  Guess Type is READ.
  Energy threshold   = 1.00e-08
  Density threshold  = 1.00e-08
  Integral threshold = 0.00e+00

  ==> Primary Basis <==

  Basis Set: AUG-CC-PVTZ
    Blend: AUG-CC-PVTZ
    Number of shells: 48
    Number of basis function: 150
    Number of Cartesian functions: 177
    Spherical Harmonics?: true
    Max angular momentum: 3

  ==> DFT Potential <==

   => Composite Functional: WB97X-D <= 

    wB97X-D Hyb-GGA Exchange-Correlation Functional

    J.-D. Chai and M. Head-Gordon, Phys. Chem. Chem. Phys. 10, 6615 (2008)

    Deriv               =              1
    GGA                 =           TRUE
    Meta                =          FALSE

    Exchange Hybrid     =           TRUE
    MP2 Hybrid          =          FALSE

   => Exchange-Correlation Functionals <=

    1.0000   wB97D range-separated functional

   => Exact (HF) Exchange <=

    0.7780            HF,LR [omega = 0.2000]
    0.2220               HF 

   => Molecular Quadrature <=

    Radial Scheme          =       TREUTLER
    Pruning Scheme         =           NONE
    Nuclear Scheme         =       TREUTLER

    BS radius alpha        =              1
    Pruning alpha          =              1
    Radial Points          =             99
    Spherical Points       =            590
    Total Points           =         170052
    Total Blocks           =           1396
    Max Points             =            255
    Max Functions          =            150
    Weights Tolerance      =       1.00E-15

   => Loading Basis Set <=

    Name: (AUG-CC-PVTZ AUX)
    Role: JKFIT
    Keyword: DF_BASIS_SCF
    atoms 1-3 entry S          line   730 file /apps/gb/PSI4/1.4.0/share/psi4/basis/aug-cc-pvtz-jkfit.gbs 

   => Loading Basis Set <=

    Name: AUG-CC-PVTZ
    Role: ORBITAL
    Keyword: BASIS
    atoms 1-3 entry S          line   906 file /apps/gb/PSI4/1.4.0/share/psi4/basis/aug-cc-pvtz.gbs 

  Reading orbitals from file 180, no projection.

  ==> Pre-Iterations <==

   -------------------------------------------------------
    Irrep   Nso     Nmo     Nalpha   Nbeta   Ndocc  Nsocc
   -------------------------------------------------------
     A'        99      99       0       0       0       0
     A"        51      51       0       0       0       0
   -------------------------------------------------------
    Total     150     150      26      24      24       2
   -------------------------------------------------------

  ==> Integral Setup <==

  ==> DiskDFJK: Density-Fitted J/K Matrices <==

    J tasked:                  Yes
    K tasked:                  Yes
    wK tasked:                 Yes
    Omega:               2.000E-01
    OpenMP threads:              1
    Integrals threads:           1
    Memory [MiB]:             6483
    Algorithm:                Core
    Integral Cache:           NONE
    Schwarz Cutoff:          1E-12
    Fitting Condition:       1E-10

   => Auxiliary Basis Set <=

  Basis Set: (AUG-CC-PVTZ AUX)
    Blend: AUG-CC-PVTZ-JKFIT
    Number of shells: 126
    Number of basis function: 438
    Number of Cartesian functions: 540
    Spherical Harmonics?: true
    Max angular momentum: 4

  Cached 100.0% of DFT collocation blocks in 0.653 [GiB].

  Minimum eigenvalue in the overlap matrix is 2.4705050047E-04.
  Using Symmetric Orthogonalization.

  SCF Guess: Orbitals guess was supplied from a previous computation.

  ==> Iterations <==

                           Total Energy        Delta E     RMS |[F,P]|

   @DF-UKS iter   0: -1194.58839052178701   -1.19459e+03   7.00162e-03 
   @DF-UKS iter   1: -1194.51869623330322    6.96943e-02   7.26916e-04 DIIS
   @DF-UKS iter   2: -1194.52154018590409   -2.84395e-03   7.35366e-04 DIIS
   @DF-UKS iter   3: -1194.52584334792937   -4.30316e-03   1.28298e-04 DIIS
   @DF-UKS iter   4: -1194.52616135608696   -3.18008e-04   7.09179e-05 DIIS
   @DF-UKS iter   5: -1194.52637694725968   -2.15591e-04   3.21330e-05 DIIS
   @DF-UKS iter   6: -1194.52648929330053   -1.12346e-04   1.90513e-05 DIIS
   @DF-UKS iter   7: -1194.52655494900546   -6.56557e-05   1.40144e-05 DIIS
   @DF-UKS iter   8: -1194.52660508986264   -5.01409e-05   1.26898e-05 DIIS
   @DF-UKS iter   9: -1194.52664406102394   -3.89712e-05   1.26603e-05 DIIS
   @DF-UKS iter  10: -1194.52666137911979   -1.73181e-05   1.26131e-05 DIIS
   @DF-UKS iter  11: -1194.52661209509961    4.92840e-05   1.17771e-05 DIIS
   @DF-UKS iter  12: -1194.52647876689934    1.33328e-04   9.23119e-06 DIIS
   @DF-UKS iter  13: -1194.52642858803983    5.01789e-05   6.78233e-06 DIIS
   @DF-UKS iter  14: -1194.52641120867065    1.73794e-05   5.73138e-06 DIIS
   @DF-UKS iter  15: -1194.52641102614393    1.82527e-07   3.19405e-06 DIIS
   @DF-UKS iter  16: -1194.52641129237622   -2.66232e-07   2.38410e-06 DIIS
   @DF-UKS iter  17: -1194.52641138060881   -8.82326e-08   1.39067e-06 DIIS
   @DF-UKS iter  18: -1194.52641147793429   -9.73255e-08   9.75641e-07 DIIS
   @DF-UKS iter  19: -1194.52641153303921   -5.51049e-08   8.08768e-07 DIIS
   @DF-UKS iter  20: -1194.52641154761409   -1.45749e-08   3.57484e-07 DIIS
   @DF-UKS iter  21: -1194.52641154724097    3.73120e-10   2.90356e-07 DIIS
   @DF-UKS iter  22: -1194.52641155287256   -5.63159e-09   1.18007e-07 DIIS
   @DF-UKS iter  23: -1194.52641155394076   -1.06820e-09   5.75950e-08 DIIS
   @DF-UKS iter  24: -1194.52641155425977   -3.19005e-10   2.91201e-08 DIIS
   @DF-UKS iter  25: -1194.52641155438505   -1.25283e-10   1.37208e-08 DIIS
   @DF-UKS iter  26: -1194.52641155441711   -3.20597e-11   9.41832e-09 DIIS
  Energy and wave function converged.


  ==> Post-Iterations <==

   @Spin Contamination Metric:   7.470402809E-03
   @S^2 Expected:                2.000000000E+00
   @S^2 Observed:                2.007470403E+00
   @S   Expected:                1.000000000E+00
   @S   Observed:                1.000000000E+00

    Orbital Energies [Eh]
    ---------------------

    Alpha Occupied:                                                       

       1Ap   -88.822851     2Ap   -88.736823     3Ap   -88.736286  
       4Ap    -7.824129     5Ap    -7.744543     6Ap    -7.743917  
       7Ap    -5.772405     1App   -5.771125     8Ap    -5.768395  
       9Ap    -5.694770    10Ap    -5.694180     2App   -5.690698  
       3App   -5.690042    11Ap    -5.686021    12Ap    -5.685397  
      13Ap    -0.609755    14Ap    -0.478727    15Ap    -0.367651  
      16Ap    -0.166395     4App   -0.147179    17Ap    -0.145878  
       5App   -0.041002    18Ap    -0.021112    19Ap    -0.011340  
       6App    0.019996    20Ap     0.159806  

    Alpha Virtual:                                                        

      21Ap     0.238925    22Ap     0.277247    23Ap     0.315900  
      24Ap     0.317262     7App    0.319707     8App    0.331112  
       9App    0.331234    25Ap     0.334960    26Ap     0.342358  
      27Ap     0.371337    28Ap     0.371437    29Ap     0.445301  
      30Ap     0.454401    10App    0.485046    11App    0.505126  
      31Ap     0.513811    32Ap     0.545517    33Ap     0.552404  
      34Ap     0.556092    12App    0.568890    35Ap     0.572681  
      13App    0.586802    14App    0.618930    36Ap     0.629583  
      37Ap     0.631117    38Ap     0.657936    15App    0.664169  
      39Ap     0.693532    16App    0.743717    40Ap     0.783251  
      17App    0.824799    41Ap     0.833212    42Ap     0.849363  
      43Ap     0.851741    18App    0.857135    19App    0.860200  
      44Ap     0.862062    45Ap     0.864600    20App    0.869063  
      46Ap     0.888738    47Ap     0.910173    21App    0.934894  
      48Ap     0.945501    49Ap     0.945931    22App    0.960912  
      50Ap     0.968987    51Ap     0.979235    52Ap     0.995365  
      23App    1.009866    24App    1.049144    25App    1.053024  
      53Ap     1.054984    54Ap     1.104109    26App    1.109270  
      55Ap     1.111734    27App    1.116745    56Ap     1.127828  
      57Ap     1.168491    58Ap     1.192321    59Ap     1.269608  
      28App    1.293713    29App    1.298950    60Ap     1.334140  
      30App    1.348808    61Ap     1.349122    31App    1.435694  
      62Ap     1.442715    63Ap     1.466509    64Ap     1.478465  
      32App    1.510833    65Ap     1.518943    33App    1.523815  
      66Ap     1.616319    67Ap     1.625020    68Ap     1.719828  
      69Ap     1.813857    70Ap     2.119933    34App    2.132067  
      35App    2.150989    71Ap     2.170128    72Ap     2.191459  
      36App    2.198454    37App    2.203577    73Ap     2.208230  
      74Ap     2.213387    75Ap     2.269692    38App    2.271201  
      76Ap     2.312774    39App    2.327895    77Ap     2.329189  
      40App    2.331761    78Ap     2.335850    41App    2.342343  
      79Ap     2.366541    42App    2.392119    80Ap     2.394301  
      43App    2.409451    81Ap     2.458232    82Ap     2.464979  
      44App    2.487829    45App    2.502085    83Ap     2.504760  
      84Ap     2.521975    46App    2.579010    85Ap     2.594591  
      47App    2.594857    48App    2.603670    86Ap     2.621023  
      87Ap     2.627416    49App    2.654244    88Ap     2.688213  
      89Ap     2.748923    90Ap     2.753104    91Ap     2.780907  
      92Ap     2.831953    50App    2.893875    51App    2.900667  
      93Ap     2.935866    94Ap     2.993263    95Ap     3.965288  
      96Ap     3.998920    97Ap     4.973527    98Ap     5.527374  
      99Ap     5.938158  

    Beta Occupied:                                                        

       1Ap   -88.819594     2Ap   -88.735064     3Ap   -88.734534  
       4Ap    -7.820692     5Ap    -7.742663     6Ap    -7.742044  
       7Ap    -5.770242     8Ap    -5.765999     1App   -5.761065  
       9Ap    -5.693376    10Ap    -5.692778     2App   -5.684974  
      11Ap    -5.684646     3App   -5.684358    12Ap    -5.684029  
      13Ap    -0.594783    14Ap    -0.467061    15Ap    -0.343132  
      16Ap    -0.157195    17Ap    -0.137293     4App   -0.109590  
      18Ap    -0.015385    19Ap    -0.005245     5App    0.000183  

    Beta Virtual:                                                         

       6App    0.231728    20Ap     0.307070    21Ap     0.308351  
       7App    0.332970    22Ap     0.333784    23Ap     0.346249  
      24Ap     0.347795     8App    0.348407    25Ap     0.380958  
      26Ap     0.386299     9App    0.396143    27Ap     0.404127  
      28Ap     0.430022    29Ap     0.466462    30Ap     0.481357  
      10App    0.491096    11App    0.510638    31Ap     0.524862  
      32Ap     0.559659    33Ap     0.567053    34Ap     0.568887  
      12App    0.576655    13App    0.592282    35Ap     0.600659  
      36Ap     0.633948    14App    0.634175    37Ap     0.637062  
      38Ap     0.661645    15App    0.667416    39Ap     0.700141  
      16App    0.756941    40Ap     0.790248    17App    0.828931  
      41Ap     0.834122    42Ap     0.856388    43Ap     0.861166  
      18App    0.864190    44Ap     0.864982    19App    0.870152  
      45Ap     0.870842    20App    0.875709    46Ap     0.894222  
      47Ap     0.919273    21App    0.944200    48Ap     0.951445  
      49Ap     0.954934    22App    0.968818    50Ap     0.975024  
      51Ap     0.990046    52Ap     1.000775    23App    1.021759  
      24App    1.059914    25App    1.061350    53Ap     1.062740  
      54Ap     1.107034    26App    1.112637    55Ap     1.113853  
      27App    1.118232    56Ap     1.136737    57Ap     1.173193  
      58Ap     1.195301    59Ap     1.270628    28App    1.295771  
      29App    1.304013    60Ap     1.338146    61Ap     1.351641  
      30App    1.352280    31App    1.439794    62Ap     1.444579  
      63Ap     1.470601    64Ap     1.481870    32App    1.516440  
      65Ap     1.523586    33App    1.531383    66Ap     1.618148  
      67Ap     1.632645    68Ap     1.731564    69Ap     1.829859  
      70Ap     2.130448    34App    2.143912    35App    2.159821  
      71Ap     2.178764    72Ap     2.201162    36App    2.207787  
      37App    2.213081    73Ap     2.213166    74Ap     2.217045  
      75Ap     2.271725    38App    2.286766    76Ap     2.316347  
      77Ap     2.337634    39App    2.341717    78Ap     2.343904  
      40App    2.347631    41App    2.352840    79Ap     2.371506  
      80Ap     2.404697    42App    2.413070    43App    2.421631  
      81Ap     2.464678    82Ap     2.471371    44App    2.499283  
      45App    2.512620    83Ap     2.513840    84Ap     2.529587  
      46App    2.588140    85Ap     2.603376    47App    2.606985  
      48App    2.619972    86Ap     2.627421    87Ap     2.635015  
      49App    2.666848    88Ap     2.700908    89Ap     2.755981  
      90Ap     2.758934    91Ap     2.786617    92Ap     2.837983  
      50App    2.909144    51App    2.913638    93Ap     2.939182  
      94Ap     2.996945    95Ap     3.970951    96Ap     4.004046  
      97Ap     4.980857    98Ap     5.533873    99Ap     5.947505  

    Final Occupation by Irrep:
             Ap   App 
    DOCC [    19,    5 ]
    SOCC [     1,    1 ]

  @DF-UKS Final Energy: -1194.52641155441711

   => Energetics <=

    Nuclear Repulsion Energy =            172.6497158310580176
    One-Electron Energy =               -2009.8674903386845472
    Two-Electron Energy =                 699.0525645744985468
    DFT Exchange-Correlation Energy =     -56.3609650049238695
    Empirical Dispersion Energy =          -0.0002366163653736
    VV10 Nonlocal Energy =                  0.0000000000000000
    Total Energy =                      -1194.5264115544171091

  UHF NO Occupations:
  HONO-2 :    5App 1.9986028
  HONO-1 :    6App 1.0000000
  HONO-0 :   20 Ap 1.0000000
  LUNO+0 :    7App 0.0013972
  LUNO+1 :    8App 0.0009088
  LUNO+2 :   21 Ap 0.0005363
  LUNO+3 :   22 Ap 0.0003815


Computation Completed


Properties will be evaluated at   0.000000,   0.000000,   0.000000 [a0]

Properties computed using the SCF density matrix

  Nuclear Dipole Moment: [e a0]
     X:     0.0000      Y:     0.0000      Z:     0.0000

  Electronic Dipole Moment: [e a0]
     X:    -0.9606      Y:    -0.6190      Z:     0.0000

  Dipole Moment: [e a0]
     X:    -0.9606      Y:    -0.6190      Z:     0.0000     Total:     1.1427

  Dipole Moment: [D]
     X:    -2.4415      Y:    -1.5734      Z:     0.0000     Total:     2.9046


*** tstop() called on c2-18.compute.lan at Tue Feb  2 14:53:48 2021
Module time:
	user time   =     156.44 seconds =       2.61 minutes
	system time =       0.69 seconds =       0.01 minutes
	total time  =        215 seconds =       3.58 minutes
Total time:
	user time   =     504.26 seconds =       8.40 minutes
	system time =      62.00 seconds =       1.03 minutes
	total time  =        842 seconds =      14.03 minutes

*** tstart() called on c2-18.compute.lan
*** at Tue Feb  2 14:53:48 2021


         ------------------------------------------------------------
                                   SCF GRAD                          
                          Rob Parrish, Justin Turney,                
                       Andy Simmonett, and Alex Sokolov              
         ------------------------------------------------------------

  ==> Geometry <==

    Molecular point group: cs
    Full point group: Cs

    Geometry (in Angstrom), charge = -2, multiplicity = 3:

       Center              X                  Y                   Z               Mass       
    ------------   -----------------  -----------------  -----------------  -----------------
         S            0.632395451456     0.431679179134     0.000000000000    31.972071174400
         S            0.632395451456    -1.614926753707     0.000000000000    31.972071174400
         S           -1.264790902911     1.183247574574     0.000000000000    31.972071174400

  Nuclear repulsion =  172.649715831058018

  ==> Basis Set <==

  Basis Set: AUG-CC-PVTZ
    Blend: AUG-CC-PVTZ
    Number of shells: 48
    Number of basis function: 150
    Number of Cartesian functions: 177
    Spherical Harmonics?: true
    Max angular momentum: 3

  ==> DFJKGrad: Density-Fitted SCF Gradients <==

    Gradient:                    1
    J tasked:                  Yes
    K tasked:                  Yes
    wK tasked:                 Yes
    Omega:               2.000E-01
    OpenMP threads:              1
    Integrals threads:           1
    Memory [MiB]:             7152
    Schwarz Cutoff:          0E+00
    Fitting Condition:       1E-10

   => Auxiliary Basis Set <=

  Basis Set: (AUG-CC-PVTZ AUX)
    Blend: AUG-CC-PVTZ-JKFIT
    Number of shells: 126
    Number of basis function: 438
    Number of Cartesian functions: 540
    Spherical Harmonics?: true
    Max angular momentum: 4

  ==> DFT Potential <==

   => Composite Functional: WB97X-D <= 

    wB97X-D Hyb-GGA Exchange-Correlation Functional

    J.-D. Chai and M. Head-Gordon, Phys. Chem. Chem. Phys. 10, 6615 (2008)

    Deriv               =              1
    GGA                 =           TRUE
    Meta                =          FALSE

    Exchange Hybrid     =           TRUE
    MP2 Hybrid          =          FALSE

   => Exchange-Correlation Functionals <=

    1.0000   wB97D range-separated functional

   => Exact (HF) Exchange <=

    0.7780            HF,LR [omega = 0.2000]
    0.2220               HF 

   => Molecular Quadrature <=

    Radial Scheme          =       TREUTLER
    Pruning Scheme         =           NONE
    Nuclear Scheme         =       TREUTLER

    BS radius alpha        =              1
    Pruning alpha          =              1
    Radial Points          =             99
    Spherical Points       =            590
    Total Points           =         170052
    Total Blocks           =           1396
    Max Points             =            255
    Max Functions          =            150
    Weights Tolerance      =       1.00E-15


  -Total Gradient:
     Atom            X                  Y                   Z
    ------   -----------------  -----------------  -----------------
       1        0.004305294249     0.004254111419     0.000000000000
       2       -0.001273736145    -0.004050844102     0.000000000000
       3       -0.003008792009    -0.000182716151     0.000000000000


*** tstop() called on c2-18.compute.lan at Tue Feb  2 14:54:16 2021
Module time:
	user time   =      19.40 seconds =       0.32 minutes
	system time =       0.10 seconds =       0.00 minutes
	total time  =         28 seconds =       0.47 minutes
Total time:
	user time   =     523.67 seconds =       8.73 minutes
	system time =      62.10 seconds =       1.03 minutes
	total time  =        870 seconds =      14.50 minutes

			-----------------------------------------
			 OPTKING 2.0: for geometry optimizations 
			  - R.A. King,  Bethel University        
			-----------------------------------------

	Previous internal coordinate definitions found.
	---Fragment 1 Geometry and Gradient---
	 S           1.1950542062        0.8157554226        0.0000000000
	 S           1.1950542062       -3.0517692772        0.0000000000
	 S          -2.3901084125        2.2360138546        0.0000000000
	             0.0043052942        0.0042541114        0.0000000000
	            -0.0012737361       -0.0040508441        0.0000000000
	            -0.0030087920       -0.0001827162        0.0000000000

	---Fragment 1 Intrafragment Coordinates---
	 - Coordinate -           - BOHR/RAD -       - ANG/DEG -
	 R(1,2)           =         3.867525	       2.046606
	 R(1,3)           =         3.856232	       2.040630
	 B(2,1,3)         =         1.947978	     111.610943

	Current energy   :     -1194.5264115544

	Energy change for the previous step:
		Projected    :        -0.0046227033
		Actual       :        -0.0007220674
	Energy ratio indicates iffy step: Trust radius decreased to 2.500e-01.


	Performing BFGS update.
	Previous computed or guess Hessian on step 1.
	Steps to be used in Hessian update: 2 1
	Taking RFO optimization step.
	Going to follow RFO solution 1.
	Using RFO vector 1.
	Norm of target step-size    0.03148
	Projected energy change by RFO approximation:        -0.0001625167

	Back-transformation to cartesian coordinates...
	Successfully converged to displaced geometry.

	--- Internal Coordinate Step in ANG or DEG, aJ/ANG or AJ/DEG ---
	 ---------------------------------------------------------------------------
	   Coordinate                Previous        Force       Change         New 
	   ----------                --------       ------       ------       ------
	    1 R(1,2)          =      2.046606    -0.033434    -0.007634     2.038972
	    2 R(1,3)          =      2.040630    -0.022526     0.001500     2.042130
	    3 B(2,1,3)        =    111.610943     0.000377     1.594915   113.205858
	 ---------------------------------------------------------------------------
	Successfully symmetrized geometry.

  ==> Convergence Check <==

  Measures of convergence in internal coordinates in au.
  Criteria marked as inactive (o), active & met (*), and active & unmet ( ).
  ---------------------------------------------------------------------------------------------
   Step     Total Energy     Delta E     MAX Force     RMS Force      MAX Disp      RMS Disp   
  ---------------------------------------------------------------------------------------------
    Convergence Criteria             o    2.00e-06 *    1.00e-06 *    6.00e-06 *    4.00e-06 *
  ---------------------------------------------------------------------------------------------
      3   -1194.52641155   -7.22e-04 o    4.96e-03      4.02e-03      2.78e-02      1.82e-02    ~
  ---------------------------------------------------------------------------------------------

	Writing optimization data to binary file.
	Structure for next step:
	Cartesian Geometry (in Angstrom)
	    S     0.6202181595   0.4195577227   0.0000000000
	    S     0.6468100213  -1.6192411930   0.0000000000
	    S    -1.2670281807   1.1996834703   0.0000000000
			--------------------------
			 OPTKING Finished Execution 
			--------------------------

    Structure for next step:
    Molecular point group: cs
    Full point group: Cs

    Geometry (in Angstrom), charge = -2, multiplicity = 3:

    S       
    S             1          r1
    S             1          r2      2          a1

    a1        =  113.2058576520
    r1        =    2.0389723339
    r2        =    2.0421300065

gradient() will perform analytic gradient computation.

*** tstart() called on c2-18.compute.lan
*** at Tue Feb  2 14:54:16 2021

   => Loading Basis Set <=

    Name: AUG-CC-PVTZ
    Role: ORBITAL
    Keyword: BASIS
    atoms 1-3 entry S          line   906 file /apps/gb/PSI4/1.4.0/share/psi4/basis/aug-cc-pvtz.gbs 

   => WB97X-D: Empirical Dispersion <=

    Chai and Head-Gordon Dispersion Correction
    Chai, J.-D.; Head-Gordon, M. (2010), J. Chem. Phys., 132: 6615-6620

        s6 =       1.000000


         ---------------------------------------------------------
                                   SCF
               by Justin Turney, Rob Parrish, Andy Simmonett
                          and Daniel G. A. Smith
                              UKS Reference
                        1 Threads,   9536 MiB Core
         ---------------------------------------------------------

  ==> Geometry <==

    Molecular point group: cs
    Full point group: Cs

    Geometry (in Angstrom), charge = -2, multiplicity = 3:

       Center              X                  Y                   Z               Mass       
    ------------   -----------------  -----------------  -----------------  -----------------
         S            0.625637200068     0.411433282880     0.000000000000    31.972071174400
         S            0.625637200068    -1.627539051011     0.000000000000    31.972071174400
         S           -1.251274400137     1.216105768131     0.000000000000    31.972071174400

  Running in cs symmetry.

  Rotational constants: A =      0.62691  B =      0.09084  C =      0.07934 [cm^-1]
  Rotational constants: A =  18794.32064  B =   2723.18519  C =   2378.54777 [MHz]
  Nuclear repulsion =  172.536870216052392

  Charge       = -2
  Multiplicity = 3
  Electrons    = 50
  Nalpha       = 26
  Nbeta        = 24

  ==> Algorithm <==

  SCF Algorithm Type is DF.
  DIIS enabled.
  MOM disabled.
  Fractional occupation disabled.
  Guess Type is READ.
  Energy threshold   = 1.00e-08
  Density threshold  = 1.00e-08
  Integral threshold = 0.00e+00

  ==> Primary Basis <==

  Basis Set: AUG-CC-PVTZ
    Blend: AUG-CC-PVTZ
    Number of shells: 48
    Number of basis function: 150
    Number of Cartesian functions: 177
    Spherical Harmonics?: true
    Max angular momentum: 3

  ==> DFT Potential <==

   => Composite Functional: WB97X-D <= 

    wB97X-D Hyb-GGA Exchange-Correlation Functional

    J.-D. Chai and M. Head-Gordon, Phys. Chem. Chem. Phys. 10, 6615 (2008)

    Deriv               =              1
    GGA                 =           TRUE
    Meta                =          FALSE

    Exchange Hybrid     =           TRUE
    MP2 Hybrid          =          FALSE

   => Exchange-Correlation Functionals <=

    1.0000   wB97D range-separated functional

   => Exact (HF) Exchange <=

    0.7780            HF,LR [omega = 0.2000]
    0.2220               HF 

   => Molecular Quadrature <=

    Radial Scheme          =       TREUTLER
    Pruning Scheme         =           NONE
    Nuclear Scheme         =       TREUTLER

    BS radius alpha        =              1
    Pruning alpha          =              1
    Radial Points          =             99
    Spherical Points       =            590
    Total Points           =         169984
    Total Blocks           =           1386
    Max Points             =            256
    Max Functions          =            150
    Weights Tolerance      =       1.00E-15

   => Loading Basis Set <=

    Name: (AUG-CC-PVTZ AUX)
    Role: JKFIT
    Keyword: DF_BASIS_SCF
    atoms 1-3 entry S          line   730 file /apps/gb/PSI4/1.4.0/share/psi4/basis/aug-cc-pvtz-jkfit.gbs 

   => Loading Basis Set <=

    Name: AUG-CC-PVTZ
    Role: ORBITAL
    Keyword: BASIS
    atoms 1-3 entry S          line   906 file /apps/gb/PSI4/1.4.0/share/psi4/basis/aug-cc-pvtz.gbs 

  Reading orbitals from file 180, no projection.

  ==> Pre-Iterations <==

   -------------------------------------------------------
    Irrep   Nso     Nmo     Nalpha   Nbeta   Ndocc  Nsocc
   -------------------------------------------------------
     A'        99      99       0       0       0       0
     A"        51      51       0       0       0       0
   -------------------------------------------------------
    Total     150     150      26      24      24       2
   -------------------------------------------------------

  ==> Integral Setup <==

  ==> DiskDFJK: Density-Fitted J/K Matrices <==

    J tasked:                  Yes
    K tasked:                  Yes
    wK tasked:                 Yes
    Omega:               2.000E-01
    OpenMP threads:              1
    Integrals threads:           1
    Memory [MiB]:             6484
    Algorithm:                Core
    Integral Cache:           NONE
    Schwarz Cutoff:          1E-12
    Fitting Condition:       1E-10

   => Auxiliary Basis Set <=

  Basis Set: (AUG-CC-PVTZ AUX)
    Blend: AUG-CC-PVTZ-JKFIT
    Number of shells: 126
    Number of basis function: 438
    Number of Cartesian functions: 540
    Spherical Harmonics?: true
    Max angular momentum: 4

  Cached 100.0% of DFT collocation blocks in 0.653 [GiB].

  Minimum eigenvalue in the overlap matrix is 2.4387404527E-04.
  Using Symmetric Orthogonalization.

  SCF Guess: Orbitals guess was supplied from a previous computation.

[...]
      13Ap    -0.612938    14Ap    -0.481464    15Ap    -0.366264  
      16Ap    -0.168254     4App   -0.149017    17Ap    -0.146977  
       5App   -0.042228    18Ap    -0.020510    19Ap    -0.012991  
       6App    0.021148    20Ap     0.160532  

    Alpha Virtual:                                                        

      21Ap     0.238305    22Ap     0.277338    23Ap     0.316090  
      24Ap     0.317139     7App    0.319337     8App    0.330870  
       9App    0.331242    25Ap     0.335448    26Ap     0.343251  
      27Ap     0.370763    28Ap     0.374983    29Ap     0.444796  
      30Ap     0.454717    10App    0.484035    11App    0.505108  
      31Ap     0.511635    32Ap     0.544548    33Ap     0.554005  
      34Ap     0.555756    12App    0.570298    35Ap     0.573331  
      13App    0.585407    14App    0.618833    36Ap     0.630163  
      37Ap     0.631527    38Ap     0.658496    15App    0.665199  
      39Ap     0.694306    16App    0.742898    40Ap     0.781054  
      17App    0.823120    41Ap     0.832830    42Ap     0.847717  
      43Ap     0.850455    18App    0.858192    19App    0.859851  
      44Ap     0.861798    45Ap     0.864748    20App    0.869643  
      46Ap     0.887378    47Ap     0.910963    21App    0.934680  
      48Ap     0.944954    49Ap     0.945152    22App    0.959370  
      50Ap     0.968324    51Ap     0.980522    52Ap     0.996855  
      23App    1.009291    24App    1.051903    25App    1.052256  
      53Ap     1.055162    54Ap     1.105686    55Ap     1.110875  
      26App    1.112183    27App    1.115136    56Ap     1.134161  
      57Ap     1.171560    58Ap     1.191381    59Ap     1.270732  
      28App    1.291711    29App    1.301067    60Ap     1.335267  
      30App    1.352061    61Ap     1.354065    31App    1.437349  
      62Ap     1.448077    63Ap     1.464284    64Ap     1.480476  
      32App    1.515240    65Ap     1.519558    33App    1.525740  
      66Ap     1.622283    67Ap     1.631126    68Ap     1.721391  
      69Ap     1.814228    70Ap     2.117992    34App    2.130898  
      35App    2.151182    71Ap     2.167943    72Ap     2.191944  
      36App    2.197281    37App    2.203901    73Ap     2.208550  
      74Ap     2.214761    75Ap     2.269409    38App    2.270164  
      76Ap     2.312247    77Ap     2.326493    39App    2.327657  
      40App    2.330776    78Ap     2.330958    41App    2.343889  
      79Ap     2.362070    42App    2.390827    80Ap     2.392691  
      43App    2.406639    81Ap     2.460694    82Ap     2.461186  
      44App    2.487523    45App    2.501929    83Ap     2.505522  
      84Ap     2.520030    46App    2.578336    85Ap     2.595064  
      47App    2.599131    48App    2.607554    86Ap     2.626172  
      87Ap     2.628420    49App    2.660342    88Ap     2.697769  
      89Ap     2.751073    90Ap     2.766203    91Ap     2.786873  
      92Ap     2.848860    50App    2.903585    51App    2.906503  
      93Ap     2.931863    94Ap     3.009087    95Ap     3.973168  
      96Ap     4.012365    97Ap     5.010499    98Ap     5.531886  
      99Ap     5.937791  

    Beta Occupied:                                                        

       1Ap   -88.819180     2Ap   -88.734951     3Ap   -88.734948  
       4Ap    -7.820508     5Ap    -7.742724     6Ap    -7.742715  
       7Ap    -5.770065     8Ap    -5.765750     1App   -5.760889  
       9Ap    -5.693414    10Ap    -5.693413     2App   -5.685016  
       3App   -5.685016    11Ap    -5.684719    12Ap    -5.684719  
      13Ap    -0.598177    14Ap    -0.470034    15Ap    -0.341824  
      16Ap    -0.159079    17Ap    -0.138606     4App   -0.111760  
      18Ap    -0.014729    19Ap    -0.007001     5App   -0.001201  

    Beta Virtual:                                                         

       6App    0.232970    20Ap     0.309131    21Ap     0.310018  
       7App    0.333328    22Ap     0.333933    23Ap     0.347485  
      24Ap     0.348152     8App    0.349108    25Ap     0.384059  
      26Ap     0.387282     9App    0.396344    27Ap     0.405371  
      28Ap     0.429196    29Ap     0.466458    30Ap     0.481866  
      10App    0.490202    11App    0.510716    31Ap     0.522902  
      32Ap     0.558876    33Ap     0.569005    34Ap     0.569011  
      12App    0.577997    13App    0.590993    35Ap     0.600545  
      14App    0.634121    36Ap     0.634881    37Ap     0.637383  
      38Ap     0.662218    15App    0.668677    39Ap     0.701382  
      16App    0.756197    40Ap     0.788438    17App    0.827217  
      41Ap     0.834151    42Ap     0.854548    43Ap     0.860309  
      44Ap     0.864553    18App    0.865245    19App    0.869912  
      45Ap     0.870862    20App    0.876167    46Ap     0.893094  
      47Ap     0.919821    21App    0.944119    48Ap     0.950891  
      49Ap     0.954230    22App    0.967155    50Ap     0.974453  
      51Ap     0.991319    52Ap     1.002183    23App    1.020919  
      24App    1.058934    53Ap     1.062788    25App    1.064441  
      54Ap     1.108581    55Ap     1.112972    26App    1.115587  
      27App    1.116622    56Ap     1.143122    57Ap     1.176203  
      58Ap     1.194366    59Ap     1.271830    28App    1.293773  
      29App    1.306091    60Ap     1.339286    30App    1.355488  
      61Ap     1.356574    31App    1.441598    62Ap     1.449960  
      63Ap     1.467626    64Ap     1.484676    32App    1.520802  
      65Ap     1.524178    33App    1.533437    66Ap     1.624125  
      67Ap     1.638923    68Ap     1.733293    69Ap     1.830070  
      70Ap     2.128573    34App    2.142758    35App    2.159918  
      71Ap     2.176608    72Ap     2.201805    36App    2.206472  
      73Ap     2.213346    37App    2.213374    74Ap     2.218371  
      75Ap     2.271342    38App    2.285785    76Ap     2.315790  
      77Ap     2.334997    78Ap     2.338574    39App    2.341237  
      40App    2.347213    41App    2.353921    79Ap     2.367225  
      80Ap     2.403008    42App    2.410259    43App    2.420273  
      81Ap     2.467333    82Ap     2.467385    44App    2.498929  
      45App    2.512469    83Ap     2.514392    84Ap     2.527911  
      46App    2.586658    85Ap     2.603738    47App    2.611878  
      48App    2.623607    86Ap     2.632434    87Ap     2.636306  
      49App    2.673222    88Ap     2.710240    89Ap     2.756585  
      90Ap     2.773359    91Ap     2.792337    92Ap     2.855066  
      50App    2.918915    51App    2.919229    93Ap     2.935160  
      94Ap     3.012657    95Ap     3.978876    96Ap     4.017442  
      97Ap     5.017792    98Ap     5.538403    99Ap     5.947060  

    Final Occupation by Irrep:
             Ap   App 
    DOCC [    19,    5 ]
    SOCC [     1,    1 ]

  @DF-UKS Final Energy: -1194.52654739471882

   => Energetics <=

    Nuclear Repulsion Energy =            173.3332239665664929
    One-Electron Energy =               -2011.2046928816998843
    Two-Electron Energy =                 699.7116180140239976
    DFT Exchange-Correlation Energy =     -56.3664590233995710
    Empirical Dispersion Energy =          -0.0002374702097723
    VV10 Nonlocal Energy =                  0.0000000000000000
    Total Energy =                      -1194.5265473947188184

  UHF NO Occupations:
  HONO-2 :    5App 1.9985993
  HONO-1 :    6App 1.0000000
  HONO-0 :   20 Ap 1.0000000
  LUNO+0 :    7App 0.0014007
  LUNO+1 :    8App 0.0008925
  LUNO+2 :   21 Ap 0.0005351
  LUNO+3 :   22 Ap 0.0003818


Computation Completed


Properties will be evaluated at   0.000000,   0.000000,   0.000000 [a0]

Properties computed using the SCF density matrix

  Nuclear Dipole Moment: [e a0]
     X:     0.0000      Y:     0.0000      Z:     0.0000

  Electronic Dipole Moment: [e a0]
     X:    -0.8817      Y:    -0.5847      Z:     0.0000

  Dipole Moment: [e a0]
     X:    -0.8817      Y:    -0.5847      Z:     0.0000     Total:     1.0580

  Dipole Moment: [D]
     X:    -2.2410      Y:    -1.4862      Z:     0.0000     Total:     2.6890


*** tstop() called on c2-18.compute.lan at Tue Feb  2 15:32:03 2021
Module time:
	user time   =     115.51 seconds =       1.93 minutes
	system time =       0.46 seconds =       0.01 minutes
	total time  =        116 seconds =       1.93 minutes
Total time:
	user time   =    2479.02 seconds =      41.32 minutes
	system time =      74.40 seconds =       1.24 minutes
	total time  =       3137 seconds =      52.28 minutes

*** tstart() called on c2-18.compute.lan
*** at Tue Feb  2 15:32:03 2021


         ------------------------------------------------------------
                                   SCF GRAD                          
                          Rob Parrish, Justin Turney,                
                       Andy Simmonett, and Alex Sokolov              
         ------------------------------------------------------------

  ==> Geometry <==

    Molecular point group: cs
    Full point group: Cs

    Geometry (in Angstrom), charge = -2, multiplicity = 3:

       Center              X                  Y                   Z               Mass       
    ------------   -----------------  -----------------  -----------------  -----------------
         S            0.623884861819     0.413762551143     0.000000000000    31.972071174400
         S            0.624067739840    -1.618223921230     0.000000000000    31.972071174400
         S           -1.247952601659     1.204461370087     0.000000000000    31.972071174400

  Nuclear repulsion =  173.333223966566493

  ==> Basis Set <==

  Basis Set: AUG-CC-PVTZ
    Blend: AUG-CC-PVTZ
    Number of shells: 48
    Number of basis function: 150
    Number of Cartesian functions: 177
    Spherical Harmonics?: true
    Max angular momentum: 3

  ==> DFJKGrad: Density-Fitted SCF Gradients <==

    Gradient:                    1
    J tasked:                  Yes
    K tasked:                  Yes
    wK tasked:                 Yes
    Omega:               2.000E-01
    OpenMP threads:              1
    Integrals threads:           1
    Memory [MiB]:             7152
    Schwarz Cutoff:          0E+00
    Fitting Condition:       1E-10

   => Auxiliary Basis Set <=

  Basis Set: (AUG-CC-PVTZ AUX)
    Blend: AUG-CC-PVTZ-JKFIT
    Number of shells: 126
    Number of basis function: 438
    Number of Cartesian functions: 540
    Spherical Harmonics?: true
    Max angular momentum: 4

  ==> DFT Potential <==

   => Composite Functional: WB97X-D <= 

    wB97X-D Hyb-GGA Exchange-Correlation Functional

    J.-D. Chai and M. Head-Gordon, Phys. Chem. Chem. Phys. 10, 6615 (2008)

    Deriv               =              1
    GGA                 =           TRUE
    Meta                =          FALSE

    Exchange Hybrid     =           TRUE
    MP2 Hybrid          =          FALSE

   => Exchange-Correlation Functionals <=

    1.0000   wB97D range-separated functional

   => Exact (HF) Exchange <=

    0.7780            HF,LR [omega = 0.2000]
    0.2220               HF 

   => Molecular Quadrature <=

    Radial Scheme          =       TREUTLER
    Pruning Scheme         =           NONE
    Nuclear Scheme         =       TREUTLER

    BS radius alpha        =              1
    Pruning alpha          =              1
    Radial Points          =             99
    Spherical Points       =            590
    Total Points           =         169985
    Total Blocks           =           1389
    Max Points             =            256
    Max Functions          =            150
    Weights Tolerance      =       1.00E-15


  -Total Gradient:
     Atom            X                  Y                   Z
    ------   -----------------  -----------------  -----------------
       1        0.000063929579     0.000041826583     0.000000000000
       2        0.000009198817    -0.000065603665     0.000000000000
       3       -0.000057412910     0.000034198900     0.000000000000


*** tstop() called on c2-18.compute.lan at Tue Feb  2 15:32:23 2021
Module time:
	user time   =      19.05 seconds =       0.32 minutes
	system time =       0.08 seconds =       0.00 minutes
	total time  =         20 seconds =       0.33 minutes
Total time:
	user time   =    2498.07 seconds =      41.63 minutes
	system time =      74.48 seconds =       1.24 minutes
	total time  =       3157 seconds =      52.62 minutes

         ----------------------------------------------------------
                                   FINDIF
                     R. A. King and Jonathon Misiewicz
         ---------------------------------------------------------

  Computing second-derivative from gradients using projected, 
  symmetry-adapted, cartesian coordinates.

  7 gradients passed in, including the reference geometry.
  Generating complete list of displacements from unique ones.


-------------------------------------------------------------


  ==> Harmonic Vibrational Analysis <==

  non-mass-weighted Hessian:       Symmetric? True   Hermitian? True   Lin Dep Dim?  6 (0)
  projection of translations (True) and rotations (True) removed 6 degrees of freedom (6)
  total projector:                 Symmetric? True   Hermitian? True   Lin Dep Dim?  6 (6)
  mass-weighted Hessian:           Symmetric? True   Hermitian? True   Lin Dep Dim?  6 (0)
  pre-proj  low-frequency mode:    0.0000i [cm^-1]
  pre-proj  low-frequency mode:    0.0000i [cm^-1]
  pre-proj  low-frequency mode:    0.0000  [cm^-1]
  pre-proj  low-frequency mode:    0.0000  [cm^-1]
  pre-proj  low-frequency mode:    0.0000  [cm^-1]
  pre-proj  low-frequency mode:    0.0000  [cm^-1]
  pre-proj  all modes:['0.0000i' '0.0000i' '0.0000' '0.0000' '0.0000' '0.0000' '180.1301'
 '465.3720' '501.8225']
  projected mass-weighted Hessian: Symmetric? True   Hermitian? True   Lin Dep Dim?  6 (6)
  post-proj low-frequency mode:    0.0000i [cm^-1] (TR)
  post-proj low-frequency mode:    0.0000i [cm^-1] (TR)
  post-proj low-frequency mode:    0.0000  [cm^-1] (TR)
  post-proj low-frequency mode:    0.0000  [cm^-1] (TR)
  post-proj low-frequency mode:    0.0000  [cm^-1] (TR)
  post-proj low-frequency mode:    0.0000  [cm^-1] (TR)
  post-proj  all modes:['0.0000i' '0.0000i' '0.0000' '0.0000' '0.0000' '0.0000' '180.1301'
 '465.3720' '501.8225']

  Vibration                       7                   8                   9           
  Freq [cm^-1]                 180.1301            465.3720            501.8225       
  Irrep                           Ap                  Ap                  Ap          
  Reduced mass [u]             31.9721             31.9721             31.9721        
  Force const [mDyne/A]         0.6112              4.0796              4.7437        
  Turning point v=0 [a0]        0.1446              0.0900              0.0866        
  RMS dev v=0 [a0 u^1/2]        0.5781              0.3597              0.3464        
  Char temp [K]                259.1671            669.5666            722.0109       
  ----------------------------------------------------------------------------------
      1   S               -0.34 -0.23 -0.00    0.59  0.39 -0.00   -0.42  0.63 -0.00   
      2   S                0.51 -0.39 -0.00   -0.10 -0.49  0.00    0.00 -0.46 -0.00   
      3   S               -0.17  0.62 -0.00   -0.49  0.10  0.00    0.42 -0.18 -0.00   

  ==> Thermochemistry Components <==

  Entropy, S
    Electronic S            2.183 [cal/(mol K)]        9.134 [J/(mol K)]       0.00347910 [mEh/K] (multiplicity = 3)
    Translational S        39.594 [cal/(mol K)]      165.660 [J/(mol K)]       0.06309659 [mEh/K] (mol. weight = 95.9162 [u], P = 101325.00 [Pa])
    Rotational S           25.359 [cal/(mol K)]      106.102 [J/(mol K)]       0.04041213 [mEh/K] (symmetry no. = 1)
    Vibrational S           3.731 [cal/(mol K)]       15.612 [J/(mol K)]       0.00594616 [mEh/K]
  Total S                  70.867 [cal/(mol K)]      296.508 [J/(mol K)]       0.11293398 [mEh/K]
  Correction S              0.000 [cal/(mol K)]        0.000 [J/(mol K)]       0.00000000 [mEh/K]

  Constant volume heat capacity, Cv
    Electronic Cv           0.000 [cal/(mol K)]        0.000 [J/(mol K)]       0.00000000 [mEh/K]
    Translational Cv        2.981 [cal/(mol K)]       12.472 [J/(mol K)]       0.00475022 [mEh/K]
    Rotational Cv           2.981 [cal/(mol K)]       12.472 [J/(mol K)]       0.00475022 [mEh/K]
    Vibrational Cv          4.440 [cal/(mol K)]       18.575 [J/(mol K)]       0.00707480 [mEh/K]
  Total Cv                 10.401 [cal/(mol K)]       43.518 [J/(mol K)]       0.01657523 [mEh/K]
  Correction Cv             0.000 [cal/(mol K)]        0.000 [J/(mol K)]       0.00000000 [mEh/K]

  Constant pressure heat capacity, Cp
    Electronic Cp           0.000 [cal/(mol K)]        0.000 [J/(mol K)]       0.00000000 [mEh/K]
    Translational Cp        4.968 [cal/(mol K)]       20.786 [J/(mol K)]       0.00791703 [mEh/K]
    Rotational Cp           2.981 [cal/(mol K)]       12.472 [J/(mol K)]       0.00475022 [mEh/K]
    Vibrational Cp          4.440 [cal/(mol K)]       18.575 [J/(mol K)]       0.00707480 [mEh/K]
  Total Cp                 12.388 [cal/(mol K)]       51.833 [J/(mol K)]       0.01974204 [mEh/K]
  Correction Cp             0.000 [cal/(mol K)]        0.000 [J/(mol K)]       0.00000000 [mEh/K]

  ==> Thermochemistry Energy Analysis <==

  Raw electronic energy, E0
  Total E0, Electronic energy at well bottom at 0 [K]                -1194.52654745 [Eh]

  Zero-point energy, ZPE_vib = Sum_i nu_i / 2
    Electronic ZPE          0.000 [kcal/mol]        0.000 [kJ/mol]       0.00000000 [Eh]
    Translational ZPE       0.000 [kcal/mol]        0.000 [kJ/mol]       0.00000000 [Eh]
    Rotational ZPE          0.000 [kcal/mol]        0.000 [kJ/mol]       0.00000000 [Eh]
    Vibrational ZPE         1.640 [kcal/mol]        6.863 [kJ/mol]       0.00261380 [Eh]         573.662 [cm^-1]
  Correction ZPE            1.640 [kcal/mol]        6.863 [kJ/mol]       0.00261380 [Eh]         573.662 [cm^-1]
  Total ZPE, Electronic energy at 0 [K]                              -1194.52393365 [Eh]

  Thermal Energy, E (includes ZPE)
    Electronic E            0.000 [kcal/mol]        0.000 [kJ/mol]       0.00000000 [Eh]
    Translational E         0.889 [kcal/mol]        3.718 [kJ/mol]       0.00141628 [Eh]
    Rotational E            0.889 [kcal/mol]        3.718 [kJ/mol]       0.00141628 [Eh]
    Vibrational E           2.309 [kcal/mol]        9.662 [kJ/mol]       0.00368010 [Eh]
  Correction E              4.087 [kcal/mol]       17.099 [kJ/mol]       0.00651266 [Eh]
  Total E, Electronic energy at  298.15 [K]                          -1194.52003479 [Eh]

  Enthalpy, H_trans = E_trans + k_B * T
    Electronic H            0.000 [kcal/mol]        0.000 [kJ/mol]       0.00000000 [Eh]
    Translational H         1.481 [kcal/mol]        6.197 [kJ/mol]       0.00236046 [Eh]
    Rotational H            0.889 [kcal/mol]        3.718 [kJ/mol]       0.00141628 [Eh]
    Vibrational H           2.309 [kcal/mol]        9.662 [kJ/mol]       0.00368010 [Eh]
  Correction H              4.679 [kcal/mol]       19.578 [kJ/mol]       0.00745684 [Eh]
  Total H, Enthalpy at  298.15 [K]                                   -1194.51909060 [Eh]

  Gibbs free energy, G = H - T * S
    Electronic G           -0.651 [kcal/mol]       -2.723 [kJ/mol]      -0.00103729 [Eh]
    Translational G       -10.324 [kcal/mol]      -43.194 [kJ/mol]      -0.01645179 [Eh]
    Rotational G           -6.672 [kcal/mol]      -27.916 [kJ/mol]      -0.01063260 [Eh]
    Vibrational G           1.197 [kcal/mol]        5.007 [kJ/mol]       0.00190726 [Eh]
  Correction G            -16.450 [kcal/mol]      -68.826 [kJ/mol]      -0.02621442 [Eh]
  Total G, Free enthalpy at  298.15 [K]                              -1194.55276187 [Eh]

    Psi4 stopped on: Tuesday, 02 February 2021 03:32PM
    Psi4 wall time for execution: 0:52:36.91

*** Psi4 exiting successfully. Buy a developer a beer!
