
    -----------------------------------------------------------------------
          Psi4: An Open-Source Ab Initio Electronic Structure Package
                               Psi4 1.4a2.dev191 

                         Git: Rev {master} 0ab5346 


    R. M. Parrish, L. A. Burns, D. G. A. Smith, A. C. Simmonett,
    A. E. DePrince III, E. G. Hohenstein, U. Bozkaya, A. Yu. Sokolov,
    R. Di Remigio, R. M. Richard, J. F. Gonthier, A. M. James,
    H. R. McAlexander, A. Kumar, M. Saitow, X. Wang, B. P. Pritchard,
    P. Verma, H. F. Schaefer III, K. Patkowski, R. A. King, E. F. Valeev,
    F. A. Evangelista, J. M. Turney, T. D. Crawford, and C. D. Sherrill,
    J. Chem. Theory Comput. 13(7) pp 3185--3197 (2017).
    (doi: 10.1021/acs.jctc.7b00174)


                         Additional Contributions by
    P. Kraus, H. Kruse, M. H. Lechner, M. C. Schieber, R. A. Shaw,
    A. Alenaizan, R. Galvelis, Z. L. Glick, S. Lehtola, and J. P. Misiewicz

    -----------------------------------------------------------------------


    Psi4 started on: Thursday, 11 February 2021 02:00PM

    Process ID: 79695
    Host:       d3-3.compute.lan
    PSIDATADIR: /apps/gb/PSI4/1.4.0/share/psi4
    Memory:     500.0 MiB
    Threads:    1
    
  ==> Input File <==

--------------------------------------------------------------------------
memory 16 GB

molecule  {
-2 1
S
S 1 r1
S 1 r2 2 a1
S 2 r3 1 a2 3 d1
r1 = 2.051
r2 = 2.024
r3 = 2.024
a1 = 105.1
a2 = 105.1
d1 = 180.0
}

set {
reference uks
basis aug-cc-pvtz
g_convergence gau_verytight
dft_spherical_points 590
dft_radial_points 99
}

optimize('wb97x-d')
frequencies('wb97x-d')

--------------------------------------------------------------------------

  Memory set to  14.901 GiB by Python driver.
gradient() will perform analytic gradient computation.

*** tstart() called on d3-3.compute.lan
*** at Thu Feb 11 14:00:20 2021

   => Loading Basis Set <=

    Name: AUG-CC-PVTZ
    Role: ORBITAL
    Keyword: BASIS
    atoms 1-4 entry S          line   906 file /apps/gb/PSI4/1.4.0/share/psi4/basis/aug-cc-pvtz.gbs 

   => WB97X-D: Empirical Dispersion <=

    Chai and Head-Gordon Dispersion Correction
    Chai, J.-D.; Head-Gordon, M. (2010), J. Chem. Phys., 132: 6615-6620

        s6 =       1.000000


         ---------------------------------------------------------
                                   SCF
               by Justin Turney, Rob Parrish, Andy Simmonett
                          and Daniel G. A. Smith
                              UKS Reference
                        1 Threads,  15258 MiB Core
         ---------------------------------------------------------

  ==> Geometry <==

    Molecular point group: c2h
    Full point group: C2h

    Geometry (in Angstrom), charge = -2, multiplicity = 1:

       Center              X                  Y                   Z               Mass       
    ------------   -----------------  -----------------  -----------------  -----------------
         S            0.000000000000     1.025500000000     0.000000000000    31.972071174400
         S            0.000000000000    -1.025500000000     0.000000000000    31.972071174400
         S           -1.954116604900     1.552761125493     0.000000000000    31.972071174400
         S            1.954116604900    -1.552761125493     0.000000000000    31.972071174400

  Running in c2h symmetry.

  Rotational constants: A =      0.43854  B =      0.03946  C =      0.03621 [cm^-1]
  Rotational constants: A =  13147.07888  B =   1183.12687  C =   1085.44584 [MHz]
  Nuclear repulsion =  310.800725288192780

  Charge       = -2
  Multiplicity = 1
  Electrons    = 66
  Nalpha       = 33
  Nbeta        = 33

  ==> Algorithm <==

  SCF Algorithm Type is DF.
  DIIS enabled.
  MOM disabled.
  Fractional occupation disabled.
  Guess Type is SAD.
  Energy threshold   = 1.00e-08
  Density threshold  = 1.00e-08
  Integral threshold = 0.00e+00

  ==> Primary Basis <==

  Basis Set: AUG-CC-PVTZ
    Blend: AUG-CC-PVTZ
    Number of shells: 64
    Number of basis function: 200
    Number of Cartesian functions: 236
    Spherical Harmonics?: true
    Max angular momentum: 3

  ==> DFT Potential <==

   => Composite Functional: WB97X-D <= 

    wB97X-D Hyb-GGA Exchange-Correlation Functional

    J.-D. Chai and M. Head-Gordon, Phys. Chem. Chem. Phys. 10, 6615 (2008)

    Deriv               =              1
    GGA                 =           TRUE
    Meta                =          FALSE

    Exchange Hybrid     =           TRUE
    MP2 Hybrid          =          FALSE

   => Exchange-Correlation Functionals <=

    1.0000   wB97D range-separated functional

   => Exact (HF) Exchange <=

    0.7780            HF,LR [omega = 0.2000]
    0.2220               HF 

   => Molecular Quadrature <=

    Radial Scheme          =       TREUTLER
    Pruning Scheme         =           NONE
    Nuclear Scheme         =       TREUTLER

    BS radius alpha        =              1
    Pruning alpha          =              1
    Radial Points          =             99
    Spherical Points       =            590
    Total Points           =         225778
    Total Blocks           =           1818
    Max Points             =            256
    Max Functions          =            200
    Weights Tolerance      =       1.00E-15

   => Loading Basis Set <=

    Name: (AUG-CC-PVTZ AUX)
    Role: JKFIT
    Keyword: DF_BASIS_SCF
    atoms 1-4 entry S          line   730 file /apps/gb/PSI4/1.4.0/share/psi4/basis/aug-cc-pvtz-jkfit.gbs 

  ==> Pre-Iterations <==

   -------------------------------------------------------
    Irrep   Nso     Nmo     Nalpha   Nbeta   Ndocc  Nsocc
   -------------------------------------------------------
     Ag        66      66       0       0       0       0
     Bg        34      34       0       0       0       0
     Au        34      34       0       0       0       0
     Bu        66      66       0       0       0       0
   -------------------------------------------------------
    Total     200     200      33      33      33       0
   -------------------------------------------------------

  ==> Integral Setup <==

  ==> DiskDFJK: Density-Fitted J/K Matrices <==

    J tasked:                  Yes
    K tasked:                  Yes
    wK tasked:                 Yes
    Omega:               2.000E-01
    OpenMP threads:              1
    Integrals threads:           1
    Memory [MiB]:            10314
    Algorithm:                Core
    Integral Cache:           NONE
    Schwarz Cutoff:          1E-12
    Fitting Condition:       1E-10

   => Auxiliary Basis Set <=

  Basis Set: (AUG-CC-PVTZ AUX)
    Blend: AUG-CC-PVTZ-JKFIT
    Number of shells: 168
    Number of basis function: 584
    Number of Cartesian functions: 720
    Spherical Harmonics?: true
    Max angular momentum: 4

  Cached 100.0% of DFT collocation blocks in 1.103 [GiB].

  Minimum eigenvalue in the overlap matrix is 2.1178000566E-04.
  Using Symmetric Orthogonalization.

  SCF Guess: Superposition of Atomic Densities via on-the-fly atomic UHF.

  ==> Iterations <==

                           Total Energy        Delta E     RMS |[F,P]|

   @DF-UKS iter SAD: -1592.36496285355315   -1.59236e+03   0.00000e+00 
   @DF-UKS iter   1: -1592.63198473511807   -2.67022e-01   5.42252e-03 DIIS
   @DF-UKS iter   2: -1592.75764819296978   -1.25663e-01   3.65367e-03 DIIS
   @DF-UKS iter   3: -1592.81923630996789   -6.15881e-02   4.32396e-04 DIIS
   @DF-UKS iter   4: -1592.82045566447732   -1.21935e-03   1.71168e-04 DIIS
   @DF-UKS iter   5: -1592.82071139528534   -2.55731e-04   8.38843e-05 DIIS
   @DF-UKS iter   6: -1592.82077492920007   -6.35339e-05   1.79103e-05 DIIS
   @DF-UKS iter   7: -1592.82078070928856   -5.78009e-06   4.00837e-06 DIIS
   @DF-UKS iter   8: -1592.82078138871657   -6.79428e-07   1.59025e-06 DIIS
   @DF-UKS iter   9: -1592.82078146235654   -7.36400e-08   5.41605e-07 DIIS
   @DF-UKS iter  10: -1592.82078147379434   -1.14378e-08   1.68397e-07 DIIS
   @DF-UKS iter  11: -1592.82078147475158   -9.57243e-10   4.36266e-08 DIIS
   @DF-UKS iter  12: -1592.82078147484572   -9.41327e-11   1.26146e-08 DIIS
   @DF-UKS iter  13: -1592.82078147485277   -7.04858e-12   3.75884e-09 DIIS
  Energy and wave function converged.


  ==> Post-Iterations <==

   @Spin Contamination Metric:   2.131628207E-14
   @S^2 Expected:                0.000000000E+00
   @S^2 Observed:                2.131628207E-14
   @S   Expected:                0.000000000E+00
   @S   Observed:                0.000000000E+00

    Orbital Energies [Eh]
    ---------------------

    Alpha Occupied:                                                       

       1Bu   -88.754361     1Ag   -88.754358     2Bu   -88.699641  
       2Ag   -88.699639     3Ag    -7.760491     3Bu    -7.760416  
       4Bu    -7.707502     4Ag    -7.707502     5Ag    -5.710904  
       5Bu    -5.710680     6Ag    -5.707247     6Bu    -5.707188  
       1Au    -5.699941     1Bg    -5.699924     7Ag    -5.658885  
       7Bu    -5.658884     8Ag    -5.650632     8Bu    -5.650632  
       2Au    -5.649499     2Bg    -5.649499     9Ag    -0.593085  
       9Bu    -0.509485    10Ag    -0.393225    10Bu    -0.317441  
      11Ag    -0.153740    11Bu    -0.131948     3Au    -0.112000  
      12Ag    -0.065500     3Bg    -0.042946    12Bu    -0.003982  
      13Ag     0.023840     4Au     0.038593     4Bg     0.077510  

    Alpha Virtual:                                                        

      13Bu     0.256031    14Ag     0.273531    14Bu     0.279482  
      15Ag     0.309591    16Ag     0.325189     5Au     0.326737  
      15Bu     0.333755     5Bg     0.337536     6Bg     0.349302  
      16Bu     0.357386     6Au     0.370151    17Bu     0.370464  
      17Ag     0.385789    18Bu     0.386948    18Ag     0.393683  
      19Ag     0.404369    19Bu     0.465141    20Ag     0.469012  
      20Bu     0.472370     7Au     0.504279     7Bg     0.521547  
      21Ag     0.550275    21Bu     0.551754     8Bg     0.571651  
      22Bu     0.572457    22Ag     0.579816    23Bu     0.583242  
       8Au     0.584380    23Ag     0.596883     9Au     0.609832  
      24Ag     0.633901    24Bu     0.641241     9Bg     0.643223  
      25Ag     0.662175    10Bg     0.674315    25Bu     0.678816  
      10Au     0.684013    26Bu     0.708945    26Ag     0.738156  
      11Au     0.776762    11Bg     0.840876    27Bu     0.844156  
      27Ag     0.860247    12Au     0.866857    28Ag     0.867730  
      28Bu     0.880175    12Bg     0.883148    13Au     0.890514  
      29Ag     0.891053    29Bu     0.891645    30Ag     0.898671  
      30Bu     0.907748    14Au     0.911549    31Ag     0.934226  
      31Bu     0.952995    13Bg     0.953726    32Ag     0.954508  
      33Ag     0.984842    15Au     0.986127    14Bg     0.987845  
      32Bu     1.002207    34Ag     1.018574    33Bu     1.018677  
      15Bg     1.040492    35Ag     1.065711    16Bg     1.072141  
      16Au     1.089693    34Bu     1.091108    17Au     1.112457  
      17Bg     1.119664    36Ag     1.124697    35Bu     1.129203  
      36Bu     1.150081    37Ag     1.154117    18Bg     1.159083  
      38Ag     1.166750    37Bu     1.179608    18Au     1.239953  
      38Bu     1.263482    39Ag     1.325629    39Bu     1.343748  
      19Au     1.344686    19Bg     1.353480    20Au     1.364709  
      40Ag     1.375173    40Bu     1.389674    20Bg     1.440094  
      41Ag     1.452507    41Bu     1.460647    42Ag     1.494981  
      21Au     1.507491    42Bu     1.511760    21Bg     1.534492  
      22Au     1.555537    43Bu     1.558894    22Bg     1.577873  
      43Ag     1.587190    44Ag     1.628726    44Bu     1.703483  
      45Ag     1.715339    45Bu     1.760919    46Ag     1.857838  
      46Bu     1.889799    23Au     2.173001    47Ag     2.177505  
      23Bg     2.207041    24Bg     2.213064    47Bu     2.214731  
      48Ag     2.223959    48Bu     2.227922    24Au     2.243982  
      49Bu     2.260240    49Ag     2.262566    50Bu     2.264681  
      25Au     2.265088    25Bg     2.297505    26Au     2.345220  
      50Ag     2.356016    51Bu     2.362247    27Au     2.369028  
      26Bg     2.387956    51Ag     2.388684    52Bu     2.398268  
      28Au     2.409645    27Bg     2.409829    52Ag     2.420462  
      28Bg     2.432298    29Au     2.439273    53Ag     2.450995  
      53Bu     2.484296    54Ag     2.517166    30Au     2.520102  
      54Bu     2.539298    55Ag     2.540998    55Bu     2.548731  
      29Bg     2.549660    56Bu     2.582670    31Au     2.594791  
      30Bg     2.620283    31Bg     2.632752    57Bu     2.645208  
      56Ag     2.653812    57Ag     2.687096    58Ag     2.692018  
      32Au     2.692864    33Au     2.700815    32Bg     2.707276  
      58Bu     2.717156    59Bu     2.771877    59Ag     2.796833  
      60Bu     2.797616    60Ag     2.867374    61Bu     2.896809  
      61Ag     2.899878    33Bg     2.928659    34Au     2.954660  
      34Bg     2.977446    62Ag     3.008750    62Bu     3.071981  
      63Ag     3.130590    63Bu     4.024120    64Ag     4.042037  
      64Bu     4.079869    65Ag     5.172348    65Bu     5.610415  
      66Ag     6.002530    66Bu     6.184136  

    Beta Occupied:                                                        

       1Bu   -88.754361     1Ag   -88.754358     2Bu   -88.699641  
       2Ag   -88.699639     3Ag    -7.760491     3Bu    -7.760416  
       4Bu    -7.707502     4Ag    -7.707502     5Ag    -5.710904  
       5Bu    -5.710680     6Ag    -5.707247     6Bu    -5.707188  
       1Au    -5.699941     1Bg    -5.699924     7Ag    -5.658885  
       7Bu    -5.658884     8Ag    -5.650632     8Bu    -5.650632  
       2Au    -5.649499     2Bg    -5.649499     9Ag    -0.593085  
       9Bu    -0.509485    10Ag    -0.393225    10Bu    -0.317441  
      11Ag    -0.153740    11Bu    -0.131948     3Au    -0.112000  
      12Ag    -0.065500     3Bg    -0.042946    12Bu    -0.003982  
      13Ag     0.023840     4Au     0.038593     4Bg     0.077510  

    Beta Virtual:                                                         

      13Bu     0.256031    14Ag     0.273531    14Bu     0.279482  
      15Ag     0.309591    16Ag     0.325189     5Au     0.326737  
      15Bu     0.333755     5Bg     0.337536     6Bg     0.349302  
      16Bu     0.357386     6Au     0.370151    17Bu     0.370464  
      17Ag     0.385789    18Bu     0.386948    18Ag     0.393683  
      19Ag     0.404369    19Bu     0.465141    20Ag     0.469012  
      20Bu     0.472370     7Au     0.504279     7Bg     0.521547  
      21Ag     0.550275    21Bu     0.551754     8Bg     0.571651  
      22Bu     0.572457    22Ag     0.579816    23Bu     0.583242  
       8Au     0.584380    23Ag     0.596883     9Au     0.609832  
      24Ag     0.633901    24Bu     0.641241     9Bg     0.643223  
      25Ag     0.662175    10Bg     0.674315    25Bu     0.678816  
      10Au     0.684013    26Bu     0.708945    26Ag     0.738156  
      11Au     0.776762    11Bg     0.840876    27Bu     0.844156  
      27Ag     0.860247    12Au     0.866857    28Ag     0.867730  
      28Bu     0.880175    12Bg     0.883148    13Au     0.890514  
      29Ag     0.891053    29Bu     0.891645    30Ag     0.898671  
      30Bu     0.907748    14Au     0.911549    31Ag     0.934226  
      31Bu     0.952995    13Bg     0.953726    32Ag     0.954508  
      33Ag     0.984842    15Au     0.986127    14Bg     0.987845  
      32Bu     1.002207    34Ag     1.018574    33Bu     1.018677  
      15Bg     1.040492    35Ag     1.065711    16Bg     1.072141  
      16Au     1.089693    34Bu     1.091108    17Au     1.112457  
      17Bg     1.119664    36Ag     1.124697    35Bu     1.129203  
      36Bu     1.150081    37Ag     1.154117    18Bg     1.159083  
      38Ag     1.166750    37Bu     1.179608    18Au     1.239953  
      38Bu     1.263482    39Ag     1.325629    39Bu     1.343748  
      19Au     1.344686    19Bg     1.353480    20Au     1.364709  
      40Ag     1.375173    40Bu     1.389674    20Bg     1.440094  
      41Ag     1.452507    41Bu     1.460647    42Ag     1.494981  
      21Au     1.507491    42Bu     1.511760    21Bg     1.534492  
      22Au     1.555537    43Bu     1.558894    22Bg     1.577873  
      43Ag     1.587190    44Ag     1.628726    44Bu     1.703483  
      45Ag     1.715339    45Bu     1.760919    46Ag     1.857838  
      46Bu     1.889799    23Au     2.173001    47Ag     2.177505  
      23Bg     2.207041    24Bg     2.213064    47Bu     2.214731  
      48Ag     2.223959    48Bu     2.227922    24Au     2.243982  
      49Bu     2.260240    49Ag     2.262566    50Bu     2.264681  
      25Au     2.265088    25Bg     2.297505    26Au     2.345220  
      50Ag     2.356016    51Bu     2.362247    27Au     2.369028  
      26Bg     2.387956    51Ag     2.388684    52Bu     2.398268  
      28Au     2.409645    27Bg     2.409829    52Ag     2.420462  
      28Bg     2.432298    29Au     2.439273    53Ag     2.450995  
      53Bu     2.484296    54Ag     2.517166    30Au     2.520102  
      54Bu     2.539298    55Ag     2.540998    55Bu     2.548731  
      29Bg     2.549660    56Bu     2.582670    31Au     2.594791  
      30Bg     2.620283    31Bg     2.632752    57Bu     2.645208  
      56Ag     2.653812    57Ag     2.687096    58Ag     2.692018  
      32Au     2.692864    33Au     2.700815    32Bg     2.707276  
      58Bu     2.717156    59Bu     2.771877    59Ag     2.796833  
      60Bu     2.797616    60Ag     2.867374    61Bu     2.896809  
      61Ag     2.899878    33Bg     2.928659    34Au     2.954660  
      34Bg     2.977446    62Ag     3.008750    62Bu     3.071981  
      63Ag     3.130590    63Bu     4.024120    64Ag     4.042037  
      64Bu     4.079869    65Ag     5.172348    65Bu     5.610415  
      66Ag     6.002530    66Bu     6.184136  

    Final Occupation by Irrep:
             Ag    Bg    Au    Bu 
    DOCC [    13,    4,    4,   12 ]
    SOCC [     0,    0,    0,    0 ]

  @DF-UKS Final Energy: -1592.82078147485277

   => Energetics <=

    Nuclear Repulsion Energy =            310.8007252881927798
    One-Electron Energy =               -2843.1243729585485198
    Two-Electron Energy =                1014.7475938906179636
    DFT Exchange-Correlation Energy =     -75.2442147767491178
    Empirical Dispersion Energy =          -0.0005129183655409
    VV10 Nonlocal Energy =                  0.0000000000000000
    Total Energy =                      -1592.8207814748525379

  UHF NO Occupations:
  HONO-2 :   12 Bu 2.0000000
  HONO-1 :   12 Ag 2.0000000
  HONO-0 :   13 Ag 2.0000000
  LUNO+0 :   14 Ag 0.0000000
  LUNO+1 :   15 Ag 0.0000000
  LUNO+2 :   16 Ag 0.0000000
  LUNO+3 :   13 Bu 0.0000000


Computation Completed


Properties will be evaluated at   0.000000,   0.000000,   0.000000 [a0]

Properties computed using the SCF density matrix

  Nuclear Dipole Moment: [e a0]
     X:     0.0000      Y:     0.0000      Z:     0.0000

  Electronic Dipole Moment: [e a0]
     X:     0.0000      Y:     0.0000      Z:     0.0000

  Dipole Moment: [e a0]
     X:     0.0000      Y:     0.0000      Z:     0.0000     Total:     0.0000

  Dipole Moment: [D]
     X:     0.0000      Y:     0.0000      Z:     0.0000     Total:     0.0000


*** tstop() called on d3-3.compute.lan at Thu Feb 11 14:03:24 2021
Module time:
	user time   =     181.80 seconds =       3.03 minutes
	system time =       1.15 seconds =       0.02 minutes
	total time  =        184 seconds =       3.07 minutes
Total time:
	user time   =     181.80 seconds =       3.03 minutes
	system time =       1.15 seconds =       0.02 minutes
	total time  =        184 seconds =       3.07 minutes

*** tstart() called on d3-3.compute.lan
*** at Thu Feb 11 14:03:24 2021


         ------------------------------------------------------------
                                   SCF GRAD                          
                          Rob Parrish, Justin Turney,                
                       Andy Simmonett, and Alex Sokolov              
         ------------------------------------------------------------

  ==> Geometry <==

    Molecular point group: c2h
    Full point group: C2h

    Geometry (in Angstrom), charge = -2, multiplicity = 1:

       Center              X                  Y                   Z               Mass       
    ------------   -----------------  -----------------  -----------------  -----------------
         S            0.000000000000     1.025500000000     0.000000000000    31.972071174400
         S            0.000000000000    -1.025500000000     0.000000000000    31.972071174400
         S           -1.954116604900     1.552761125493     0.000000000000    31.972071174400
         S            1.954116604900    -1.552761125493     0.000000000000    31.972071174400

  Nuclear repulsion =  310.800725288192723

  ==> Basis Set <==

  Basis Set: AUG-CC-PVTZ
    Blend: AUG-CC-PVTZ
    Number of shells: 64
    Number of basis function: 200
    Number of Cartesian functions: 236
    Spherical Harmonics?: true
    Max angular momentum: 3

  ==> DFJKGrad: Density-Fitted SCF Gradients <==

    Gradient:                    1
    J tasked:                  Yes
    K tasked:                  Yes
    wK tasked:                 Yes
    Omega:               2.000E-01
    OpenMP threads:              1
    Integrals threads:           1
    Memory [MiB]:            11444
    Schwarz Cutoff:          0E+00
    Fitting Condition:       1E-10

   => Auxiliary Basis Set <=

  Basis Set: (AUG-CC-PVTZ AUX)
    Blend: AUG-CC-PVTZ-JKFIT
    Number of shells: 168
    Number of basis function: 584
    Number of Cartesian functions: 720
    Spherical Harmonics?: true
    Max angular momentum: 4

  ==> DFT Potential <==

   => Composite Functional: WB97X-D <= 

    wB97X-D Hyb-GGA Exchange-Correlation Functional

    J.-D. Chai and M. Head-Gordon, Phys. Chem. Chem. Phys. 10, 6615 (2008)

    Deriv               =              1
    GGA                 =           TRUE
    Meta                =          FALSE

    Exchange Hybrid     =           TRUE
    MP2 Hybrid          =          FALSE

   => Exchange-Correlation Functionals <=

    1.0000   wB97D range-separated functional

   => Exact (HF) Exchange <=

    0.7780            HF,LR [omega = 0.2000]
    0.2220               HF 

   => Molecular Quadrature <=

    Radial Scheme          =       TREUTLER
    Pruning Scheme         =           NONE
    Nuclear Scheme         =       TREUTLER

    BS radius alpha        =              1
    Pruning alpha          =              1
    Radial Points          =             99
    Spherical Points       =            590
    Total Points           =         225778
    Total Blocks           =           1818
    Max Points             =            256
    Max Functions          =            200
    Weights Tolerance      =       1.00E-15


  -Total Gradient:
     Atom            X                  Y                   Z
    ------   -----------------  -----------------  -----------------
       1       -0.020669813529    -0.028155605468     0.000000000000
       2        0.020669813529     0.028155605468     0.000000000000
       3        0.020238225725    -0.005227286563     0.000000000000
       4       -0.020238225725     0.005227286563    -0.000000000000


*** tstop() called on d3-3.compute.lan at Thu Feb 11 14:04:06 2021
Module time:
	user time   =      41.94 seconds =       0.70 minutes
	system time =       0.16 seconds =       0.00 minutes
	total time  =         42 seconds =       0.70 minutes
Total time:
	user time   =     223.74 seconds =       3.73 minutes
	system time =       1.31 seconds =       0.02 minutes
	total time  =        226 seconds =       3.77 minutes

			-----------------------------------------
			 OPTKING 2.0: for geometry optimizations 
			  - R.A. King,  Bethel University        
			-----------------------------------------

	Internal coordinates to be generated automatically.
	Detected frag 1 with atoms:  1 2 3 4
	---Fragment 1 Bond Connectivity---
	 1 : 2 3
	 2 : 1 4
	 3 : 1
	 4 : 2

	---Fragment 1 Geometry and Gradient---
	 S           0.0000000000        1.9379141417        0.0000000000
	 S           0.0000000000       -1.9379141417        0.0000000000
	 S          -3.6927452005        2.9342932654        0.0000000000
	 S           3.6927452005       -2.9342932654        0.0000000000
	            -0.0206698135       -0.0281556055        0.0000000000
	             0.0206698135        0.0281556055        0.0000000000
	             0.0202382257       -0.0052272866        0.0000000000
	            -0.0202382257        0.0052272866       -0.0000000000

	Previous optimization step data not found.  Starting new optimization.

	---Fragment 1 Intrafragment Coordinates---
	 - Coordinate -           - BOHR/RAD -       - ANG/DEG -
	 R(1,2)           =         3.875828	       2.051000
	 R(1,3)           =         3.824806	       2.024000
	 R(2,4)           =         3.824806	       2.024000
	 B(1,2,4)         =         1.834341	     105.100000
	 B(2,1,3)         =         1.834341	     105.100000
	 D(3,1,2,4)       =         3.141593	     180.000000

	Current energy   :     -1592.8207814749

	Generating empirical Hessian (Schlegel '84) for each fragment.
	Taking RFO optimization step.
	Going to follow RFO solution 1.
	Using RFO vector 1.
	Norm of target step-size    0.14362
	Projected energy change by RFO approximation:        -0.0062088591

	Back-transformation to cartesian coordinates...
	Successfully converged to displaced geometry.

	--- Internal Coordinate Step in ANG or DEG, aJ/ANG or AJ/DEG ---
	 ---------------------------------------------------------------------------
	   Coordinate                Previous        Force       Change         New 
	   ----------                --------       ------       ------       ------
	    1 R(1,2)          =      2.051000     0.275062     0.058915     2.109915
	    2 R(1,3)          =      2.024000     0.172184     0.033904     2.057904
	    3 R(2,4)          =      2.024000     0.172184     0.033904     2.057904
	    4 B(1,2,4)        =    105.100000    -0.000064    -0.188971   104.911029
	    5 B(2,1,3)        =    105.100000    -0.000064    -0.188971   104.911029
	    6 D(3,1,2,4)      =    180.000000     0.000000     0.000000   180.000000
	 ---------------------------------------------------------------------------
	Successfully symmetrized geometry.

  ==> Convergence Check <==

  Measures of convergence in internal coordinates in au.
  Criteria marked as inactive (o), active & met (*), and active & unmet ( ).
  --------------------------------------------------------------------------------------------- ~
   Step     Total Energy     Delta E     MAX Force     RMS Force      MAX Disp      RMS Disp    ~
  --------------------------------------------------------------------------------------------- ~
    Convergence Criteria             o    2.00e-06 *    1.00e-06 *    6.00e-06 *    4.00e-06 *  ~
  --------------------------------------------------------------------------------------------- ~
      1   -1592.82078147   -1.59e+03 o    3.34e-02      1.82e-02      1.11e-01      5.86e-02    ~
  ---------------------------------------------------------------------------------------------

	Writing optimization data to binary file.
	Structure for next step:
	Cartesian Geometry (in Angstrom)
	    S    -0.0012009232   1.0549567394   0.0000000000
	    S     0.0012009232  -1.0549567394   0.0000000000
	    S    -1.9904096346   1.5822300329   0.0000000000
	    S     1.9904096346  -1.5822300329   0.0000000000
			--------------------------
			 OPTKING Finished Execution 
			--------------------------

    Structure for next step:
    Molecular point group: c2h
    Full point group: C2h

    Geometry (in Angstrom), charge = -2, multiplicity = 1:

    S       
    S             1          r1
    S             1          r2      2          a1
    S             2          r3      1          a2      3          d1

    a1        =  104.9110294040
    a2        =  104.9110294040
    d1        = -180.0000000000
    r1        =    2.1099148542
    r2        =    2.0579038989
    r3        =    2.0579038989

gradient() will perform analytic gradient computation.

*** tstart() called on d3-3.compute.lan
*** at Thu Feb 11 14:04:06 2021

   => Loading Basis Set <=

    Name: AUG-CC-PVTZ
    Role: ORBITAL
    Keyword: BASIS
    atoms 1-4 entry S          line   906 file /apps/gb/PSI4/1.4.0/share/psi4/basis/aug-cc-pvtz.gbs 

   => WB97X-D: Empirical Dispersion <=

    Chai and Head-Gordon Dispersion Correction
    Chai, J.-D.; Head-Gordon, M. (2010), J. Chem. Phys., 132: 6615-6620

        s6 =       1.000000


         ---------------------------------------------------------
                                   SCF
               by Justin Turney, Rob Parrish, Andy Simmonett
                          and Daniel G. A. Smith
                              UKS Reference
                        1 Threads,  15258 MiB Core
         ---------------------------------------------------------

  ==> Geometry <==

    Molecular point group: c2h
    Full point group: C2h

    Geometry (in Angstrom), charge = -2, multiplicity = 1:

       Center              X                  Y                   Z               Mass       
    ------------   -----------------  -----------------  -----------------  -----------------
         S            0.000000000000     1.054957427088     0.000000000000    31.972071174400
         S            0.000000000000    -1.054957427088     0.000000000000    31.972071174400
         S           -1.988607202654     1.584494820190     0.000000000000    31.972071174400
         S            1.988607202654    -1.584494820190     0.000000000000    31.972071174400

  Running in c2h symmetry.

  Rotational constants: A =      0.41597  B =      0.03796  C =      0.03479 [cm^-1]
  Rotational constants: A =  12470.37528  B =   1138.11319  C =   1042.92983 [MHz]
  Nuclear repulsion =  304.487909213862338

  Charge       = -2
  Multiplicity = 1
  Electrons    = 66
  Nalpha       = 33
  Nbeta        = 33

  ==> Algorithm <==

  SCF Algorithm Type is DF.
  DIIS enabled.
  MOM disabled.
  Fractional occupation disabled.
  Guess Type is READ.
  Energy threshold   = 1.00e-08
  Density threshold  = 1.00e-08
  Integral threshold = 0.00e+00

  ==> Primary Basis <==

  Basis Set: AUG-CC-PVTZ
    Blend: AUG-CC-PVTZ
    Number of shells: 64
    Number of basis function: 200
    Number of Cartesian functions: 236
    Spherical Harmonics?: true
    Max angular momentum: 3

  ==> DFT Potential <==

   => Composite Functional: WB97X-D <= 

    wB97X-D Hyb-GGA Exchange-Correlation Functional

    J.-D. Chai and M. Head-Gordon, Phys. Chem. Chem. Phys. 10, 6615 (2008)

    Deriv               =              1
    GGA                 =           TRUE
    Meta                =          FALSE

    Exchange Hybrid     =           TRUE
    MP2 Hybrid          =          FALSE

   => Exchange-Correlation Functionals <=

    1.0000   wB97D range-separated functional

   => Exact (HF) Exchange <=

    0.7780            HF,LR [omega = 0.2000]
    0.2220               HF 

   => Molecular Quadrature <=

    Radial Scheme          =       TREUTLER
    Pruning Scheme         =           NONE
    Nuclear Scheme         =       TREUTLER

    BS radius alpha        =              1
    Pruning alpha          =              1
    Radial Points          =             99
    Spherical Points       =            590
    Total Points           =         225866
    Total Blocks           =           1818
    Max Points             =            256
    Max Functions          =            200
    Weights Tolerance      =       1.00E-15

   => Loading Basis Set <=

    Name: (AUG-CC-PVTZ AUX)
    Role: JKFIT
    Keyword: DF_BASIS_SCF
    atoms 1-4 entry S          line   730 file /apps/gb/PSI4/1.4.0/share/psi4/basis/aug-cc-pvtz-jkfit.gbs 

   => Loading Basis Set <=

    Name: AUG-CC-PVTZ
    Role: ORBITAL
    Keyword: BASIS
    atoms 1-4 entry S          line   906 file /apps/gb/PSI4/1.4.0/share/psi4/basis/aug-cc-pvtz.gbs 

  Reading orbitals from file 180, no projection.

  ==> Pre-Iterations <==

   -------------------------------------------------------
    Irrep   Nso     Nmo     Nalpha   Nbeta   Ndocc  Nsocc
   -------------------------------------------------------
     Ag        66      66       0       0       0       0
     Bg        34      34       0       0       0       0
     Au        34      34       0       0       0       0
     Bu        66      66       0       0       0       0
   -------------------------------------------------------
    Total     200     200      33      33      33       0
   -------------------------------------------------------

  ==> Integral Setup <==

  ==> DiskDFJK: Density-Fitted J/K Matrices <==

    J tasked:                  Yes
    K tasked:                  Yes
    wK tasked:                 Yes
    Omega:               2.000E-01
    OpenMP threads:              1
    Integrals threads:           1
    Memory [MiB]:            10327
    Algorithm:                Core
    Integral Cache:           NONE
    Schwarz Cutoff:          1E-12
    Fitting Condition:       1E-10

   => Auxiliary Basis Set <=

  Basis Set: (AUG-CC-PVTZ AUX)
    Blend: AUG-CC-PVTZ-JKFIT
    Number of shells: 168
    Number of basis function: 584
    Number of Cartesian functions: 720
    Spherical Harmonics?: true
    Max angular momentum: 4

  Cached 100.0% of DFT collocation blocks in 1.090 [GiB].

  Minimum eigenvalue in the overlap matrix is 2.3524324772E-04.
  Using Symmetric Orthogonalization.

  SCF Guess: Orbitals guess was supplied from a previous computation.

  ==> Iterations <==

                           Total Energy        Delta E     RMS |[F,P]|

   @DF-UKS iter   0: -1592.79393945129641   -1.59279e+03   1.52085e-03 
   @DF-UKS iter   1: -1592.82492197054989   -3.09825e-02   1.98231e-04 DIIS
   @DF-UKS iter   2: -1592.82501135351481   -8.93830e-05   1.76286e-04 DIIS
   @DF-UKS iter   3: -1592.82521407210174   -2.02719e-04   3.10883e-05 DIIS
   @DF-UKS iter   4: -1592.82522070581945   -6.63372e-06   7.20960e-06 DIIS
   @DF-UKS iter   5: -1592.82522174819997   -1.04238e-06   3.33135e-06 DIIS
   @DF-UKS iter   6: -1592.82522189267638   -1.44476e-07   6.79121e-07 DIIS
   @DF-UKS iter   7: -1592.82522191384624   -2.11699e-08   1.81119e-07 DIIS
   @DF-UKS iter   8: -1592.82522191521230   -1.36606e-09   6.41348e-08 DIIS
   @DF-UKS iter   9: -1592.82522191533872   -1.26420e-10   2.25389e-08 DIIS
   @DF-UKS iter  10: -1592.82522191535099   -1.22782e-11   5.91195e-09 DIIS
  Energy and wave function converged.


  ==> Post-Iterations <==

   @Spin Contamination Metric:   5.684341886E-14
   @S^2 Expected:                0.000000000E+00
   @S^2 Observed:                5.684341886E-14
   @S   Expected:                0.000000000E+00
   @S   Observed:                0.000000000E+00

    Orbital Energies [Eh]
    ---------------------

    Alpha Occupied:                                                       

       1Bu   -88.758742     1Ag   -88.758738     2Bu   -88.702809  
       2Ag   -88.702807     3Ag    -7.763607     3Bu    -7.763554  
       4Bu    -7.710022     4Ag    -7.710022     5Ag    -5.714052  
       5Bu    -5.713892     6Ag    -5.710560     6Bu    -5.710520  
       1Au    -5.703055     1Bg    -5.703045     7Ag    -5.661539  
       7Bu    -5.661538     8Ag    -5.653183     8Bu    -5.653183  
       2Au    -5.651975     2Bg    -5.651975     9Ag    -0.580457  
       9Bu    -0.504319    10Ag    -0.391455    10Bu    -0.324029  
      11Ag    -0.149527    11Bu    -0.127715     3Au    -0.105972  
      12Ag    -0.066822     3Bg    -0.042405    12Bu    -0.006099  
      13Ag     0.023171     4Au     0.036260     4Bg     0.071021  

    Alpha Virtual:                                                        

      13Bu     0.255374    14Ag     0.272956    14Bu     0.279122  
      15Ag     0.308963    16Ag     0.325279     5Au     0.326812  
      15Bu     0.328509     5Bg     0.336798     6Bg     0.349302  
      16Bu     0.355264    17Bu     0.363947     6Au     0.369724  
      18Bu     0.378143    17Ag     0.382988    18Ag     0.390396  
      19Ag     0.400663    19Bu     0.463380    20Ag     0.467420  
      20Bu     0.472117     7Au     0.502568     7Bg     0.520170  
      21Bu     0.547743    21Ag     0.548670    22Bu     0.568252  
       8Bg     0.568556    22Ag     0.579208     8Au     0.581814  
      23Bu     0.583134    23Ag     0.596443     9Au     0.607528  
      24Ag     0.631568    24Bu     0.637829     9Bg     0.641776  
      25Ag     0.656969    10Bg     0.673102    25Bu     0.673530  
      10Au     0.679671    26Bu     0.703661    26Ag     0.735876  
      11Au     0.776243    11Bg     0.840359    27Bu     0.844229  
      27Ag     0.856440    12Au     0.866440    28Ag     0.871237  
      28Bu     0.879569    12Bg     0.881353    13Au     0.890221  
      29Ag     0.891124    29Bu     0.891634    30Ag     0.896874  
      14Au     0.910022    30Bu     0.910150    31Ag     0.929153  
      31Bu     0.950487    13Bg     0.954394    32Ag     0.957347  
      33Ag     0.981145    14Bg     0.981357    15Au     0.984838  
      32Bu     0.999224    34Ag     1.010315    33Bu     1.013859  
      15Bg     1.035432    35Ag     1.058131    16Bg     1.064085  
      34Bu     1.079052    16Au     1.082489    17Au     1.108161  
      17Bg     1.109190    36Ag     1.113193    35Bu     1.120424  
      36Bu     1.137340    37Ag     1.144794    18Bg     1.154988  
      38Ag     1.159204    37Bu     1.168826    18Au     1.229382  
      38Bu     1.244605    39Ag     1.312075    39Bu     1.331830  
      19Au     1.331909    19Bg     1.345778    20Au     1.353860  
      40Ag     1.363721    40Bu     1.374614    20Bg     1.427174  
      41Ag     1.444908    41Bu     1.450507    42Ag     1.485778  
      21Au     1.496064    42Bu     1.497454    21Bg     1.525550  
      22Au     1.547916    43Bu     1.548759    22Bg     1.567111  
      43Ag     1.568160    44Ag     1.625212    44Bu     1.687357  
      45Ag     1.694564    45Bu     1.744510    46Ag     1.847028  
      46Bu     1.887427    23Au     2.170728    47Ag     2.178860  
      23Bg     2.203869    24Bg     2.209406    47Bu     2.209897  
      48Ag     2.219992    48Bu     2.226113    24Au     2.237420  
      49Bu     2.254672    25Au     2.259183    50Bu     2.268684  
      49Ag     2.274110    25Bg     2.297168    26Au     2.344834  
      51Bu     2.359845    50Ag     2.363536    27Au     2.377706  
      51Ag     2.385631    26Bg     2.390644    28Au     2.402292  
      52Bu     2.405221    27Bg     2.409247    52Ag     2.418550  
      29Au     2.437301    28Bg     2.439041    53Ag     2.447650  
      53Bu     2.487214    54Ag     2.501365    30Au     2.518919  
      54Bu     2.526582    55Ag     2.534725    29Bg     2.542511  
      55Bu     2.550523    56Bu     2.576797    31Au     2.590396  
      30Bg     2.600286    31Bg     2.619120    56Ag     2.634571  
      57Bu     2.634691    57Ag     2.655474    32Au     2.672894  
      33Au     2.677997    58Ag     2.685396    32Bg     2.698374  
      58Bu     2.707622    59Bu     2.753302    59Ag     2.765334  
      60Bu     2.778021    60Ag     2.839077    61Ag     2.850538  
      61Bu     2.851629    33Bg     2.886215    34Au     2.931704  
      34Bg     2.948754    62Ag     2.989942    62Bu     3.023344  
      63Ag     3.068828    63Bu     3.952281    64Ag     4.000735  
      64Bu     4.042853    65Ag     5.077633    65Bu     5.537926  
      66Ag     5.947126    66Bu     6.179951  

    Beta Occupied:                                                        

       1Bu   -88.758742     1Ag   -88.758738     2Bu   -88.702809  
       2Ag   -88.702807     3Ag    -7.763607     3Bu    -7.763554  
       4Bu    -7.710022     4Ag    -7.710022     5Ag    -5.714052  
       5Bu    -5.713892     6Ag    -5.710560     6Bu    -5.710520  
       1Au    -5.703055     1Bg    -5.703045     7Ag    -5.661539  
       7Bu    -5.661538     8Ag    -5.653183     8Bu    -5.653183  
       2Au    -5.651975     2Bg    -5.651975     9Ag    -0.580457  
       9Bu    -0.504319    10Ag    -0.391455    10Bu    -0.324029  
      11Ag    -0.149527    11Bu    -0.127715     3Au    -0.105972  
      12Ag    -0.066822     3Bg    -0.042405    12Bu    -0.006099  
      13Ag     0.023171     4Au     0.036260     4Bg     0.071021  

    Beta Virtual:                                                         

      13Bu     0.255374    14Ag     0.272956    14Bu     0.279122  
      15Ag     0.308963    16Ag     0.325279     5Au     0.326812  
      15Bu     0.328509     5Bg     0.336798     6Bg     0.349302  
      16Bu     0.355264    17Bu     0.363947     6Au     0.369724  
      18Bu     0.378143    17Ag     0.382988    18Ag     0.390396  
      19Ag     0.400663    19Bu     0.463380    20Ag     0.467420  
      20Bu     0.472117     7Au     0.502568     7Bg     0.520170  
      21Bu     0.547743    21Ag     0.548670    22Bu     0.568252  
       8Bg     0.568556    22Ag     0.579208     8Au     0.581814  
      23Bu     0.583134    23Ag     0.596443     9Au     0.607528  
      24Ag     0.631568    24Bu     0.637829     9Bg     0.641776  
      25Ag     0.656969    10Bg     0.673102    25Bu     0.673530  
      10Au     0.679671    26Bu     0.703661    26Ag     0.735876  
      11Au     0.776243    11Bg     0.840359    27Bu     0.844229  
      27Ag     0.856440    12Au     0.866440    28Ag     0.871237  
      28Bu     0.879569    12Bg     0.881353    13Au     0.890221  
      29Ag     0.891124    29Bu     0.891634    30Ag     0.896874  
      14Au     0.910022    30Bu     0.910150    31Ag     0.929153  
      31Bu     0.950487    13Bg     0.954394    32Ag     0.957347  
      33Ag     0.981145    14Bg     0.981357    15Au     0.984838  
      32Bu     0.999224    34Ag     1.010315    33Bu     1.013859  
      15Bg     1.035432    35Ag     1.058131    16Bg     1.064085  
      34Bu     1.079052    16Au     1.082489    17Au     1.108161  
      17Bg     1.109190    36Ag     1.113193    35Bu     1.120424  
      36Bu     1.137340    37Ag     1.144794    18Bg     1.154988  
      38Ag     1.159204    37Bu     1.168826    18Au     1.229382  
      38Bu     1.244605    39Ag     1.312075    39Bu     1.331830  
      19Au     1.331909    19Bg     1.345778    20Au     1.353860  
      40Ag     1.363721    40Bu     1.374614    20Bg     1.427174  
      41Ag     1.444908    41Bu     1.450507    42Ag     1.485778  
      21Au     1.496064    42Bu     1.497454    21Bg     1.525550  
      22Au     1.547916    43Bu     1.548759    22Bg     1.567111  
      43Ag     1.568160    44Ag     1.625212    44Bu     1.687357  
      45Ag     1.694564    45Bu     1.744510    46Ag     1.847028  
      46Bu     1.887427    23Au     2.170728    47Ag     2.178860  
      23Bg     2.203869    24Bg     2.209406    47Bu     2.209897  
      48Ag     2.219992    48Bu     2.226113    24Au     2.237420  
      49Bu     2.254672    25Au     2.259183    50Bu     2.268684  
      49Ag     2.274110    25Bg     2.297168    26Au     2.344834  
      51Bu     2.359845    50Ag     2.363536    27Au     2.377706  
      51Ag     2.385631    26Bg     2.390644    28Au     2.402292  
      52Bu     2.405221    27Bg     2.409247    52Ag     2.418550  
      29Au     2.437301    28Bg     2.439041    53Ag     2.447650  
      53Bu     2.487214    54Ag     2.501365    30Au     2.518919  
      54Bu     2.526582    55Ag     2.534725    29Bg     2.542511  
      55Bu     2.550523    56Bu     2.576797    31Au     2.590396  
      30Bg     2.600286    31Bg     2.619120    56Ag     2.634571  
      57Bu     2.634691    57Ag     2.655474    32Au     2.672894  
      33Au     2.677997    58Ag     2.685396    32Bg     2.698374  
      58Bu     2.707622    59Bu     2.753302    59Ag     2.765334  
      60Bu     2.778021    60Ag     2.839077    61Ag     2.850538  
      61Bu     2.851629    33Bg     2.886215    34Au     2.931704  
      34Bg     2.948754    62Ag     2.989942    62Bu     3.023344  
      63Ag     3.068828    63Bu     3.952281    64Ag     4.000735  
      64Bu     4.042853    65Ag     5.077633    65Bu     5.537926  
      66Ag     5.947126    66Bu     6.179951  

    Final Occupation by Irrep:
             Ag    Bg    Au    Bu 
    DOCC [    13,    4,    4,   12 ]
    SOCC [     0,    0,    0,    0 ]

  @DF-UKS Final Energy: -1592.82522191535099

   => Energetics <=

    Nuclear Repulsion Energy =            304.4879092138623378
    One-Electron Energy =               -2830.4364830458630422
    Two-Electron Energy =                1008.3369470946141746
    DFT Exchange-Correlation Energy =     -75.2130532598039849
    Empirical Dispersion Energy =          -0.0005419181602268
    VV10 Nonlocal Energy =                  0.0000000000000000
    Total Energy =                      -1592.8252219153509941

  UHF NO Occupations:
  HONO-2 :   11 Bu 2.0000000
  HONO-1 :   13 Ag 2.0000000
  HONO-0 :   12 Bu 2.0000000
  LUNO+0 :   13 Bu 0.0000000
  LUNO+1 :   14 Bu 0.0000000
  LUNO+2 :   14 Ag 0.0000000
  LUNO+3 :    5 Bg 0.0000000


Computation Completed


Properties will be evaluated at   0.000000,   0.000000,   0.000000 [a0]

Properties computed using the SCF density matrix

  Nuclear Dipole Moment: [e a0]
     X:     0.0000      Y:     0.0000      Z:     0.0000

  Electronic Dipole Moment: [e a0]
     X:     0.0000      Y:     0.0000      Z:     0.0000

  Dipole Moment: [e a0]
     X:     0.0000      Y:     0.0000      Z:     0.0000     Total:     0.0000

  Dipole Moment: [D]
     X:     0.0000      Y:     0.0000      Z:     0.0000     Total:     0.0000


*** tstop() called on d3-3.compute.lan at Thu Feb 11 14:06:29 2021
Module time:
	user time   =     142.88 seconds =       2.38 minutes
	system time =       0.61 seconds =       0.01 minutes
	total time  =        143 seconds =       2.38 minutes
Total time:
	user time   =     366.63 seconds =       6.11 minutes
	system time =       1.92 seconds =       0.03 minutes
	total time  =        369 seconds =       6.15 minutes

*** tstart() called on d3-3.compute.lan
*** at Thu Feb 11 14:06:29 2021


         ------------------------------------------------------------
                                   SCF GRAD                          
                          Rob Parrish, Justin Turney,                
                       Andy Simmonett, and Alex Sokolov              
         ------------------------------------------------------------

  ==> Geometry <==

    Molecular point group: c2h
    Full point group: C2h

    Geometry (in Angstrom), charge = -2, multiplicity = 1:

       Center              X                  Y                   Z               Mass       
    ------------   -----------------  -----------------  -----------------  -----------------
         S            0.000000000000     1.054957427088     0.000000000000    31.972071174400
         S            0.000000000000    -1.054957427088     0.000000000000    31.972071174400
         S           -1.988607202654     1.584494820190     0.000000000000    31.972071174400
         S            1.988607202654    -1.584494820190     0.000000000000    31.972071174400

  Nuclear repulsion =  304.487909213862338

  ==> Basis Set <==

  Basis Set: AUG-CC-PVTZ
    Blend: AUG-CC-PVTZ
    Number of shells: 64
    Number of basis function: 200
    Number of Cartesian functions: 236
    Spherical Harmonics?: true
    Max angular momentum: 3

  ==> DFJKGrad: Density-Fitted SCF Gradients <==

    Gradient:                    1
    J tasked:                  Yes
    K tasked:                  Yes
    wK tasked:                 Yes
    Omega:               2.000E-01
    OpenMP threads:              1
    Integrals threads:           1
    Memory [MiB]:            11444
    Schwarz Cutoff:          0E+00
    Fitting Condition:       1E-10

   => Auxiliary Basis Set <=

  Basis Set: (AUG-CC-PVTZ AUX)
    Blend: AUG-CC-PVTZ-JKFIT
    Number of shells: 168
    Number of basis function: 584
    Number of Cartesian functions: 720
    Spherical Harmonics?: true
    Max angular momentum: 4

  ==> DFT Potential <==

   => Composite Functional: WB97X-D <= 

    wB97X-D Hyb-GGA Exchange-Correlation Functional

    J.-D. Chai and M. Head-Gordon, Phys. Chem. Chem. Phys. 10, 6615 (2008)

    Deriv               =              1
    GGA                 =           TRUE
    Meta                =          FALSE

    Exchange Hybrid     =           TRUE
    MP2 Hybrid          =          FALSE

   => Exchange-Correlation Functionals <=

    1.0000   wB97D range-separated functional

   => Exact (HF) Exchange <=

    0.7780            HF,LR [omega = 0.2000]
    0.2220               HF 

   => Molecular Quadrature <=

    Radial Scheme          =       TREUTLER
    Pruning Scheme         =           NONE
    Nuclear Scheme         =       TREUTLER

    BS radius alpha        =              1
    Pruning alpha          =              1
    Radial Points          =             99
    Spherical Points       =            590
    Total Points           =         225866
    Total Blocks           =           1818
    Max Points             =            256
    Max Functions          =            200
    Weights Tolerance      =       1.00E-15


  -Total Gradient:
     Atom            X                  Y                   Z
    ------   -----------------  -----------------  -----------------
       1       -0.007779775004    -0.012296862387     0.000000000000
       2        0.007779775004     0.012296862387     0.000000000000
       3        0.007646688377    -0.001952689512     0.000000000000
       4       -0.007646688377     0.001952689512     0.000000000000


*** tstop() called on d3-3.compute.lan at Thu Feb 11 14:07:11 2021
Module time:
	user time   =      41.73 seconds =       0.70 minutes
	system time =       0.14 seconds =       0.00 minutes
	total time  =         42 seconds =       0.70 minutes
Total time:
	user time   =     408.36 seconds =       6.81 minutes
	system time =       2.06 seconds =       0.03 minutes
	total time  =        411 seconds =       6.85 minutes

			-----------------------------------------
			 OPTKING 2.0: for geometry optimizations 
			  - R.A. King,  Bethel University        
			-----------------------------------------

	Previous internal coordinate definitions found.
	---Fragment 1 Geometry and Gradient---
	 S           0.0000000000        1.9935806112        0.0000000000
	 S           0.0000000000       -1.9935806112        0.0000000000
	 S          -3.7579229841        2.9942612574        0.0000000000
	 S           3.7579229841       -2.9942612574        0.0000000000
	            -0.0077797750       -0.0122968624        0.0000000000
	             0.0077797750        0.0122968624        0.0000000000
	             0.0076466884       -0.0019526895        0.0000000000
	            -0.0076466884        0.0019526895        0.0000000000

	---Fragment 1 Intrafragment Coordinates---
	 - Coordinate -           - BOHR/RAD -       - ANG/DEG -
	 R(1,2)           =         3.987161	       2.109915
	 R(1,3)           =         3.888875	       2.057904
	 R(2,4)           =         3.888875	       2.057904
	 B(1,2,4)         =         1.831043	     104.911029
	 B(2,1,3)         =         1.831043	     104.911029
	 D(3,1,2,4)       =         3.141593	     180.000000

	Current energy   :     -1592.8252219154

	Energy change for the previous step:
		Projected    :        -0.0062088591
		Actual       :        -0.0044404405

	Performing BFGS update.
	Previous computed or guess Hessian on step 1.
	Steps to be used in Hessian update: 1
	Taking RFO optimization step.
	Going to follow RFO solution 1.
	Using RFO vector 1.
	Norm of target step-size    0.09797
	Projected energy change by RFO approximation:         0.0002049686

	Back-transformation to cartesian coordinates...
	Successfully converged to displaced geometry.

	--- Internal Coordinate Step in ANG or DEG, aJ/ANG or AJ/DEG ---
	 ---------------------------------------------------------------------------
	   Coordinate                Previous        Force       Change         New 
	   ----------                --------       ------       ------       ------
	    1 R(1,2)          =      2.109915     0.117454     0.042095     2.152010
	    2 R(1,3)          =      2.057904     0.064989     0.021375     2.079279
	    3 R(2,4)          =      2.057904     0.064989     0.021375     2.079279
	    4 B(1,2,4)        =    104.911029    -0.000022    -0.105151   104.805879
	    5 B(2,1,3)        =    104.911029    -0.000022    -0.105151   104.805879
	    6 D(3,1,2,4)      =    180.000000     0.000000     0.000000   180.000000
	 ---------------------------------------------------------------------------
	Successfully symmetrized geometry.

  ==> Convergence Check <==

  Measures of convergence in internal coordinates in au.
  Criteria marked as inactive (o), active & met (*), and active & unmet ( ).
  ---------------------------------------------------------------------------------------------
   Step     Total Energy     Delta E     MAX Force     RMS Force      MAX Disp      RMS Disp   
  ---------------------------------------------------------------------------------------------
    Convergence Criteria             o    2.00e-06 *    1.00e-06 *    6.00e-06 *    4.00e-06 *
  ---------------------------------------------------------------------------------------------
      2   -1592.82522192   -4.44e-03 o    1.43e-02      7.39e-03      7.95e-02      4.00e-02    ~
  ---------------------------------------------------------------------------------------------

	Writing optimization data to binary file.
	Structure for next step:
	Cartesian Geometry (in Angstrom)
	    S    -0.0015665249   1.0760040051   0.0000000000
	    S     0.0015665249  -1.0760040051   0.0000000000
	    S    -2.0125786035   1.6044259319   0.0000000000
	    S     2.0125786035  -1.6044259319   0.0000000000
			--------------------------
			 OPTKING Finished Execution 
			--------------------------

    Structure for next step:
    Molecular point group: c2h
    Full point group: C2h

    Geometry (in Angstrom), charge = -2, multiplicity = 1:

    S       
    S             1          r1
    S             1          r2      2          a1
    S             2          r3      1          a2      3          d1

    a1        =  104.8058785774
    a2        =  104.8058785774
    d1        = -180.0000000000
    r1        =    2.1520102994
    r2        =    2.0792785641
    r3        =    2.0792785641

gradient() will perform analytic gradient computation.

*** tstart() called on d3-3.compute.lan
*** at Thu Feb 11 14:07:11 2021

   => Loading Basis Set <=

    Name: AUG-CC-PVTZ
    Role: ORBITAL
    Keyword: BASIS
    atoms 1-4 entry S          line   906 file /apps/gb/PSI4/1.4.0/share/psi4/basis/aug-cc-pvtz.gbs 

   => WB97X-D: Empirical Dispersion <=

    Chai and Head-Gordon Dispersion Correction
    Chai, J.-D.; Head-Gordon, M. (2010), J. Chem. Phys., 132: 6615-6620

        s6 =       1.000000


         ---------------------------------------------------------
                                   SCF
               by Justin Turney, Rob Parrish, Andy Simmonett
                          and Daniel G. A. Smith
                              UKS Reference
                        1 Threads,  15258 MiB Core
         ---------------------------------------------------------

  ==> Geometry <==

    Molecular point group: c2h
    Full point group: C2h

    Geometry (in Angstrom), charge = -2, multiplicity = 1:

       Center              X                  Y                   Z               Mass       
    ------------   -----------------  -----------------  -----------------  -----------------
         S            0.000000000000     1.076005149700     0.000000000000    31.972071174400
         S            0.000000000000    -1.076005149700     0.000000000000    31.972071174400
         S           -2.010240641086     1.607354293024     0.000000000000    31.972071174400
         S            2.010240641086    -1.607354293024     0.000000000000    31.972071174400

  Running in c2h symmetry.

  Rotational constants: A =      0.40152  B =      0.03700  C =      0.03388 [cm^-1]
  Rotational constants: A =  12037.30021  B =   1109.12112  C =   1015.54815 [MHz]
  Nuclear repulsion =  300.379838464158468

  Charge       = -2
  Multiplicity = 1
  Electrons    = 66
  Nalpha       = 33
  Nbeta        = 33

  ==> Algorithm <==

  SCF Algorithm Type is DF.
  DIIS enabled.
  MOM disabled.
  Fractional occupation disabled.
  Guess Type is READ.
  Energy threshold   = 1.00e-08
  Density threshold  = 1.00e-08
  Integral threshold = 0.00e+00

  ==> Primary Basis <==

  Basis Set: AUG-CC-PVTZ
    Blend: AUG-CC-PVTZ
    Number of shells: 64
    Number of basis function: 200
    Number of Cartesian functions: 236
    Spherical Harmonics?: true
    Max angular momentum: 3

  ==> DFT Potential <==

   => Composite Functional: WB97X-D <= 

    wB97X-D Hyb-GGA Exchange-Correlation Functional

    J.-D. Chai and M. Head-Gordon, Phys. Chem. Chem. Phys. 10, 6615 (2008)

    Deriv               =              1
    GGA                 =           TRUE
    Meta                =          FALSE

    Exchange Hybrid     =           TRUE
    MP2 Hybrid          =          FALSE

   => Exchange-Correlation Functionals <=

    1.0000   wB97D range-separated functional

   => Exact (HF) Exchange <=

    0.7780            HF,LR [omega = 0.2000]
    0.2220               HF 

   => Molecular Quadrature <=

    Radial Scheme          =       TREUTLER
    Pruning Scheme         =           NONE
    Nuclear Scheme         =       TREUTLER

    BS radius alpha        =              1
    Pruning alpha          =              1
    Radial Points          =             99
    Spherical Points       =            590
    Total Points           =         225896
    Total Blocks           =           1826
    Max Points             =            256
    Max Functions          =            200
    Weights Tolerance      =       1.00E-15

   => Loading Basis Set <=

    Name: (AUG-CC-PVTZ AUX)
    Role: JKFIT
    Keyword: DF_BASIS_SCF
    atoms 1-4 entry S          line   730 file /apps/gb/PSI4/1.4.0/share/psi4/basis/aug-cc-pvtz-jkfit.gbs 

   => Loading Basis Set <=

    Name: AUG-CC-PVTZ
    Role: ORBITAL
    Keyword: BASIS
    atoms 1-4 entry S          line   906 file /apps/gb/PSI4/1.4.0/share/psi4/basis/aug-cc-pvtz.gbs 

  Reading orbitals from file 180, no projection.

  ==> Pre-Iterations <==

   -------------------------------------------------------
    Irrep   Nso     Nmo     Nalpha   Nbeta   Ndocc  Nsocc
   -------------------------------------------------------
     Ag        66      66       0       0       0       0
     Bg        34      34       0       0       0       0
     Au        34      34       0       0       0       0
     Bu        66      66       0       0       0       0
   -------------------------------------------------------
    Total     200     200      33      33      33       0
   -------------------------------------------------------

  ==> Integral Setup <==

  ==> DiskDFJK: Density-Fitted J/K Matrices <==

    J tasked:                  Yes
    K tasked:                  Yes
    wK tasked:                 Yes
    Omega:               2.000E-01
    OpenMP threads:              1
    Integrals threads:           1
    Memory [MiB]:            10332
    Algorithm:                Core
    Integral Cache:           NONE
    Schwarz Cutoff:          1E-12
    Fitting Condition:       1E-10

   => Auxiliary Basis Set <=

  Basis Set: (AUG-CC-PVTZ AUX)
    Blend: AUG-CC-PVTZ-JKFIT
    Number of shells: 168
    Number of basis function: 584
    Number of Cartesian functions: 720
    Spherical Harmonics?: true
    Max angular momentum: 4

  Cached 100.0% of DFT collocation blocks in 1.086 [GiB].

  Minimum eigenvalue in the overlap matrix is 2.4952024221E-04.
  Using Symmetric Orthogonalization.

  SCF Guess: Orbitals guess was supplied from a previous computation.

  ==> Iterations <==

                           Total Energy        Delta E     RMS |[F,P]|

   @DF-UKS iter   0: -1592.80643359255464   -1.59281e+03   9.72720e-04 
   @DF-UKS iter   1: -1592.82609843443061   -1.96648e-02   1.33177e-04 DIIS
   @DF-UKS iter   2: -1592.82613396797660   -3.55335e-05   1.20889e-04 DIIS
   @DF-UKS iter   3: -1592.82623008629912   -9.61183e-05   2.05524e-05 DIIS
   @DF-UKS iter   4: -1592.82623299159854   -2.90530e-06   4.79922e-06 DIIS
   @DF-UKS iter   5: -1592.82623345582260   -4.64224e-07   2.18189e-06 DIIS
   @DF-UKS iter   6: -1592.82623352042333   -6.46007e-08   4.54845e-07 DIIS
   @DF-UKS iter   7: -1592.82623352950122   -9.07789e-09   1.21314e-07 DIIS
   @DF-UKS iter   8: -1592.82623353004919   -5.47971e-10   4.64768e-08 DIIS
   @DF-UKS iter   9: -1592.82623353010604   -5.68434e-11   1.45034e-08 DIIS
   @DF-UKS iter  10: -1592.82623353011149   -5.45697e-12   3.68947e-09 DIIS
  Energy and wave function converged.


  ==> Post-Iterations <==

   @Spin Contamination Metric:   4.263256415E-14
   @S^2 Expected:                0.000000000E+00
   @S^2 Observed:                4.263256415E-14
   @S   Expected:                0.000000000E+00
   @S   Observed:                0.000000000E+00

    Orbital Energies [Eh]
    ---------------------

    Alpha Occupied:                                                       

       1Bu   -88.761574     1Ag   -88.761570     2Bu   -88.704920  
       2Ag   -88.704918     3Ag    -7.765689     3Bu    -7.765646  
       4Bu    -7.711755     4Ag    -7.711755     5Ag    -5.716146  
       5Bu    -5.716020     6Ag    -5.712764     6Bu    -5.712733  
       1Au    -5.705135     1Bg    -5.705128     7Ag    -5.663350  
       7Bu    -5.663349     8Ag    -5.654939     8Bu    -5.654938  
       2Bg    -5.653678     2Au    -5.653678     9Ag    -0.572486  
       9Bu    -0.501529    10Ag    -0.390477    10Bu    -0.328401  
      11Ag    -0.146575    11Bu    -0.124998     3Au    -0.102201  
      12Ag    -0.067844     3Bg    -0.042374    12Bu    -0.007598  
      13Ag     0.022781     4Au     0.034747     4Bg     0.066821  

    Alpha Virtual:                                                        

      13Bu     0.254893    14Ag     0.272523    14Bu     0.278738  
      15Ag     0.308510    15Bu     0.323677    16Ag     0.325301  
       5Au     0.326799     5Bg     0.336271     6Bg     0.349254  
      16Bu     0.353072    17Bu     0.360618     6Au     0.369369  
      18Bu     0.373265    17Ag     0.379464    18Ag     0.388919  
      19Ag     0.399174    19Bu     0.462072    20Ag     0.466428  
      20Bu     0.472135     7Au     0.501340     7Bg     0.519257  
      21Bu     0.545037    21Ag     0.547428    22Bu     0.565496  
       8Bg     0.566491    22Ag     0.578780     8Au     0.579976  
      23Bu     0.583029    23Ag     0.596310     9Au     0.605944  
      24Ag     0.629548    24Bu     0.635533     9Bg     0.640743  
      25Ag     0.653994    25Bu     0.670050    10Bg     0.672211  
      10Au     0.676703    26Bu     0.700216    26Ag     0.734012  
      11Au     0.775771    11Bg     0.839545    27Bu     0.844203  
      27Ag     0.853553    12Au     0.866006    28Ag     0.873142  
      28Bu     0.879128    12Bg     0.880287    29Ag     0.890253  
      13Au     0.890376    29Bu     0.891557    30Ag     0.896549  
      14Au     0.909002    30Bu     0.911731    31Ag     0.926565  
      31Bu     0.948935    13Bg     0.954785    32Ag     0.959335  
      14Bg     0.976804    33Ag     0.977992    15Au     0.983948  
      32Bu     0.996660    34Ag     1.005165    33Bu     1.011378  
      15Bg     1.032101    35Ag     1.052956    16Bg     1.059184  
      34Bu     1.070689    16Au     1.077719    17Bg     1.102316  
      17Au     1.105427    36Ag     1.105789    35Bu     1.114350  
      36Bu     1.129596    37Ag     1.139289    18Bg     1.152349  
      38Ag     1.154551    37Bu     1.161976    18Au     1.222662  
      38Bu     1.232686    39Ag     1.302685    19Au     1.323482  
      39Bu     1.323613    19Bg     1.340739    20Au     1.346210  
      40Ag     1.356315    40Bu     1.364591    20Bg     1.418262  
      41Ag     1.435714    41Bu     1.443962    42Ag     1.483332  
      42Bu     1.488016    21Au     1.488496    21Bg     1.519640  
      43Bu     1.541920    22Au     1.542994    43Ag     1.555593  
      22Bg     1.560631    44Ag     1.622684    44Bu     1.676426  
      45Ag     1.680606    45Bu     1.732677    46Ag     1.840254  
      46Bu     1.884905    23Au     2.167192    47Ag     2.179649  
      23Bg     2.200432    47Bu     2.205367    24Bg     2.207240  
      48Ag     2.217664    48Bu     2.222800    24Au     2.231436  
      25Au     2.252872    49Bu     2.254815    50Bu     2.273787  
      49Ag     2.281900    25Bg     2.297350    26Au     2.346722  
      51Bu     2.357603    50Ag     2.364266    51Ag     2.382587  
      27Au     2.389201    26Bg     2.391070    28Au     2.397379  
      52Bu     2.409655    27Bg     2.410363    52Ag     2.419016  
      29Au     2.436742    28Bg     2.443690    53Ag     2.444339  
      53Bu     2.488308    54Ag     2.493605    30Au     2.518160  
      54Bu     2.519541    55Ag     2.532087    29Bg     2.536971  
      55Bu     2.551881    56Bu     2.573385    31Au     2.586919  
      30Bg     2.586941    56Ag     2.604888    31Bg     2.610120  
      57Bu     2.627515    57Ag     2.640713    32Au     2.656196  
      33Au     2.669049    58Ag     2.684779    32Bg     2.694050  
      58Bu     2.702169    59Ag     2.740507    59Bu     2.741529  
      60Bu     2.761946    60Ag     2.819322    61Ag     2.831509  
      61Bu     2.832372    33Bg     2.856650    34Au     2.917124  
      34Bg     2.930796    62Ag     2.981565    62Bu     2.992775  
      63Ag     3.026985    63Bu     3.887835    64Ag     3.971325  
      64Bu     4.016184    65Ag     5.021140    65Bu     5.489733  
      66Ag     5.915875    66Bu     6.184709  

    Beta Occupied:                                                        

       1Bu   -88.761574     1Ag   -88.761570     2Bu   -88.704920  
       2Ag   -88.704918     3Ag    -7.765689     3Bu    -7.765646  
       4Bu    -7.711755     4Ag    -7.711755     5Ag    -5.716146  
       5Bu    -5.716020     6Ag    -5.712764     6Bu    -5.712733  
       1Au    -5.705135     1Bg    -5.705128     7Ag    -5.663350  
       7Bu    -5.663349     8Ag    -5.654939     8Bu    -5.654938  
       2Bg    -5.653678     2Au    -5.653678     9Ag    -0.572486  
       9Bu    -0.501529    10Ag    -0.390477    10Bu    -0.328401  
      11Ag    -0.146575    11Bu    -0.124998     3Au    -0.102201  
      12Ag    -0.067844     3Bg    -0.042374    12Bu    -0.007598  
      13Ag     0.022781     4Au     0.034747     4Bg     0.066821  

    Beta Virtual:                                                         

      13Bu     0.254893    14Ag     0.272523    14Bu     0.278738  
      15Ag     0.308510    15Bu     0.323677    16Ag     0.325301  
       5Au     0.326799     5Bg     0.336271     6Bg     0.349254  
      16Bu     0.353072    17Bu     0.360618     6Au     0.369369  
      18Bu     0.373265    17Ag     0.379464    18Ag     0.388919  
      19Ag     0.399174    19Bu     0.462072    20Ag     0.466428  
      20Bu     0.472135     7Au     0.501340     7Bg     0.519257  
      21Bu     0.545037    21Ag     0.547428    22Bu     0.565496  
       8Bg     0.566491    22Ag     0.578780     8Au     0.579976  
      23Bu     0.583029    23Ag     0.596310     9Au     0.605944  
      24Ag     0.629548    24Bu     0.635533     9Bg     0.640743  
      25Ag     0.653994    25Bu     0.670050    10Bg     0.672211  
      10Au     0.676703    26Bu     0.700216    26Ag     0.734012  
      11Au     0.775771    11Bg     0.839545    27Bu     0.844203  
      27Ag     0.853553    12Au     0.866006    28Ag     0.873142  
      28Bu     0.879128    12Bg     0.880287    29Ag     0.890253  
      13Au     0.890376    29Bu     0.891557    30Ag     0.896549  
      14Au     0.909002    30Bu     0.911731    31Ag     0.926565  
      31Bu     0.948935    13Bg     0.954785    32Ag     0.959335  
      14Bg     0.976804    33Ag     0.977992    15Au     0.983948  
      32Bu     0.996660    34Ag     1.005165    33Bu     1.011378  
      15Bg     1.032101    35Ag     1.052956    16Bg     1.059184  
      34Bu     1.070689    16Au     1.077719    17Bg     1.102316  
      17Au     1.105427    36Ag     1.105789    35Bu     1.114350  
      36Bu     1.129596    37Ag     1.139289    18Bg     1.152349  
      38Ag     1.154551    37Bu     1.161976    18Au     1.222662  
      38Bu     1.232686    39Ag     1.302685    19Au     1.323482  
      39Bu     1.323613    19Bg     1.340739    20Au     1.346210  
      40Ag     1.356315    40Bu     1.364591    20Bg     1.418262  
      41Ag     1.435714    41Bu     1.443962    42Ag     1.483332  
      42Bu     1.488016    21Au     1.488496    21Bg     1.519640  
      43Bu     1.541920    22Au     1.542994    43Ag     1.555593  
      22Bg     1.560631    44Ag     1.622684    44Bu     1.676426  
      45Ag     1.680606    45Bu     1.732677    46Ag     1.840254  
      46Bu     1.884905    23Au     2.167192    47Ag     2.179649  
      23Bg     2.200432    47Bu     2.205367    24Bg     2.207240  
      48Ag     2.217664    48Bu     2.222800    24Au     2.231436  
      25Au     2.252872    49Bu     2.254815    50Bu     2.273787  
      49Ag     2.281900    25Bg     2.297350    26Au     2.346722  
      51Bu     2.357603    50Ag     2.364266    51Ag     2.382587  
      27Au     2.389201    26Bg     2.391070    28Au     2.397379  
      52Bu     2.409655    27Bg     2.410363    52Ag     2.419016  
      29Au     2.436742    28Bg     2.443690    53Ag     2.444339  
      53Bu     2.488308    54Ag     2.493605    30Au     2.518160  
      54Bu     2.519541    55Ag     2.532087    29Bg     2.536971  
      55Bu     2.551881    56Bu     2.573385    31Au     2.586919  
      30Bg     2.586941    56Ag     2.604888    31Bg     2.610120  
      57Bu     2.627515    57Ag     2.640713    32Au     2.656196  
      33Au     2.669049    58Ag     2.684779    32Bg     2.694050  
      58Bu     2.702169    59Ag     2.740507    59Bu     2.741529  
      60Bu     2.761946    60Ag     2.819322    61Ag     2.831509  
      61Bu     2.832372    33Bg     2.856650    34Au     2.917124  
      34Bg     2.930796    62Ag     2.981565    62Bu     2.992775  
      63Ag     3.026985    63Bu     3.887835    64Ag     3.971325  
      64Bu     4.016184    65Ag     5.021140    65Bu     5.489733  
      66Ag     5.915875    66Bu     6.184709  

    Final Occupation by Irrep:
             Ag    Bg    Au    Bu 
    DOCC [    13,    4,    4,   12 ]
    SOCC [     0,    0,    0,    0 ]

  @DF-UKS Final Energy: -1592.82623353011149

   => Energetics <=

    Nuclear Repulsion Energy =            300.3798384641584676
    One-Electron Energy =               -2822.1701055284952417
    Two-Electron Energy =                1004.1581339419008145
    DFT Exchange-Correlation Energy =     -75.1935370623727977
    Empirical Dispersion Energy =          -0.0005633453028129
    VV10 Nonlocal Energy =                  0.0000000000000000
    Total Energy =                      -1592.8262335301114945

  UHF NO Occupations:
  HONO-2 :   12 Ag 2.0000000
  HONO-1 :   13 Ag 2.0000000
  HONO-0 :   12 Bu 2.0000000
  LUNO+0 :   14 Ag 0.0000000
  LUNO+1 :   13 Bu 0.0000000
  LUNO+2 :   14 Bu 0.0000000
  LUNO+3 :   15 Ag 0.0000000


Computation Completed


Properties will be evaluated at   0.000000,   0.000000,   0.000000 [a0]

Properties computed using the SCF density matrix

  Nuclear Dipole Moment: [e a0]
     X:     0.0000      Y:     0.0000      Z:     0.0000

  Electronic Dipole Moment: [e a0]
     X:     0.0000      Y:     0.0000      Z:     0.0000

  Dipole Moment: [e a0]
     X:     0.0000      Y:     0.0000      Z:     0.0000     Total:     0.0000

  Dipole Moment: [D]
     X:     0.0000      Y:     0.0000      Z:     0.0000     Total:     0.0000


*** tstop() called on d3-3.compute.lan at Thu Feb 11 14:09:34 2021
Module time:
	user time   =     141.78 seconds =       2.36 minutes
	system time =       0.56 seconds =       0.01 minutes
	total time  =        143 seconds =       2.38 minutes
Total time:
	user time   =     550.15 seconds =       9.17 minutes
	system time =       2.62 seconds =       0.04 minutes
	total time  =        554 seconds =       9.23 minutes

*** tstart() called on d3-3.compute.lan
*** at Thu Feb 11 14:09:34 2021


         ------------------------------------------------------------
                                   SCF GRAD                          
                          Rob Parrish, Justin Turney,                
                       Andy Simmonett, and Alex Sokolov              
         ------------------------------------------------------------

  ==> Geometry <==

    Molecular point group: c2h
    Full point group: C2h

    Geometry (in Angstrom), charge = -2, multiplicity = 1:

       Center              X                  Y                   Z               Mass       
    ------------   -----------------  -----------------  -----------------  -----------------
         S            0.000000000000     1.076005149700     0.000000000000    31.972071174400
         S            0.000000000000    -1.076005149700     0.000000000000    31.972071174400
         S           -2.010240641086     1.607354293024     0.000000000000    31.972071174400
         S            2.010240641086    -1.607354293024     0.000000000000    31.972071174400

  Nuclear repulsion =  300.379838464158468

  ==> Basis Set <==

  Basis Set: AUG-CC-PVTZ
    Blend: AUG-CC-PVTZ
    Number of shells: 64
    Number of basis function: 200
    Number of Cartesian functions: 236
    Spherical Harmonics?: true
    Max angular momentum: 3

  ==> DFJKGrad: Density-Fitted SCF Gradients <==

    Gradient:                    1
    J tasked:                  Yes
    K tasked:                  Yes
    wK tasked:                 Yes
    Omega:               2.000E-01
    OpenMP threads:              1
    Integrals threads:           1
    Memory [MiB]:            11444
    Schwarz Cutoff:          0E+00
    Fitting Condition:       1E-10

   => Auxiliary Basis Set <=

  Basis Set: (AUG-CC-PVTZ AUX)
    Blend: AUG-CC-PVTZ-JKFIT
    Number of shells: 168
    Number of basis function: 584
    Number of Cartesian functions: 720
    Spherical Harmonics?: true
    Max angular momentum: 4

  ==> DFT Potential <==

   => Composite Functional: WB97X-D <= 

    wB97X-D Hyb-GGA Exchange-Correlation Functional

    J.-D. Chai and M. Head-Gordon, Phys. Chem. Chem. Phys. 10, 6615 (2008)

    Deriv               =              1
    GGA                 =           TRUE
    Meta                =          FALSE

    Exchange Hybrid     =           TRUE
    MP2 Hybrid          =          FALSE

   => Exchange-Correlation Functionals <=

    1.0000   wB97D range-separated functional

   => Exact (HF) Exchange <=

    0.7780            HF,LR [omega = 0.2000]
    0.2220               HF 

   => Molecular Quadrature <=

    Radial Scheme          =       TREUTLER
    Pruning Scheme         =           NONE
    Nuclear Scheme         =       TREUTLER

    BS radius alpha        =              1
    Pruning alpha          =              1
    Radial Points          =             99
    Spherical Points       =            590
    Total Points           =         225896
    Total Blocks           =           1826
    Max Points             =            256
    Max Functions          =            200
    Weights Tolerance      =       1.00E-15


  -Total Gradient:
     Atom            X                  Y                   Z
    ------   -----------------  -----------------  -----------------
       1       -0.000205673136    -0.003007138471     0.000000000000
       2        0.000205673136     0.003007138471     0.000000000000
       3        0.000361447271    -0.000163091518     0.000000000000
       4       -0.000361447271     0.000163091518     0.000000000000


*** tstop() called on d3-3.compute.lan at Thu Feb 11 14:10:16 2021
Module time:
	user time   =      41.73 seconds =       0.70 minutes
	system time =       0.16 seconds =       0.00 minutes
	total time  =         42 seconds =       0.70 minutes
Total time:
	user time   =     591.88 seconds =       9.86 minutes
	system time =       2.78 seconds =       0.05 minutes
	total time  =        596 seconds =       9.93 minutes

			-----------------------------------------
			 OPTKING 2.0: for geometry optimizations 
			  - R.A. King,  Bethel University        
			-----------------------------------------

	Previous internal coordinate definitions found.
	---Fragment 1 Geometry and Gradient---
	 S           0.0000000000        2.0333550425        0.0000000000
	 S           0.0000000000       -2.0333550425        0.0000000000
	 S          -3.7988042579        3.0374594004        0.0000000000
	 S           3.7988042579       -3.0374594004        0.0000000000
	            -0.0002056731       -0.0030071385        0.0000000000
	             0.0002056731        0.0030071385        0.0000000000
	             0.0003614473       -0.0001630915        0.0000000000
	            -0.0003614473        0.0001630915        0.0000000000

	---Fragment 1 Intrafragment Coordinates---
	 - Coordinate -           - BOHR/RAD -       - ANG/DEG -
	 R(1,2)           =         4.066710	       2.152010
	 R(1,3)           =         3.929267	       2.079279
	 R(2,4)           =         3.929267	       2.079279
	 B(1,2,4)         =         1.829208	     104.805879
	 B(2,1,3)         =         1.829208	     104.805879
	 D(3,1,2,4)       =         3.141593	     180.000000

	Current energy   :     -1592.8262335301

	Energy change for the previous step:
		Projected    :         0.0002049686
		Actual       :        -0.0010116148

	Performing BFGS update.
	Previous computed or guess Hessian on step 1.
	Steps to be used in Hessian update: 2 1
	Taking RFO optimization step.
	Going to follow RFO solution 1.
	Using RFO vector 1.
	Norm of target step-size    0.01819
	Projected energy change by RFO approximation:        -0.0000229712

	Back-transformation to cartesian coordinates...
	Successfully converged to displaced geometry.

	--- Internal Coordinate Step in ANG or DEG, aJ/ANG or AJ/DEG ---
	 ---------------------------------------------------------------------------
	   Coordinate                Previous        Force       Change         New 
	   ----------                --------       ------       ------       ------
	    1 R(1,2)          =      2.152010     0.026186     0.009080     2.161090
	    2 R(1,3)          =      2.079279     0.003187     0.002174     2.081453
	    3 R(2,4)          =      2.079279     0.003187     0.002174     2.081453
	    4 B(1,2,4)        =    104.805879     0.000022     0.065135   104.871014
	    5 B(2,1,3)        =    104.805879     0.000022     0.065135   104.871014
	    6 D(3,1,2,4)      =    180.000000     0.000000     0.000000   180.000000
	 ---------------------------------------------------------------------------
	Successfully symmetrized geometry.

  ==> Convergence Check <==

  Measures of convergence in internal coordinates in au.
  Criteria marked as inactive (o), active & met (*), and active & unmet ( ).
  ---------------------------------------------------------------------------------------------
[...]
     122Ap     2.831721    66App    2.846360    67App    2.917611  
      68App    2.930047   123Ap     2.983813   124Ap     2.987505  
     125Ap     3.012200   126Ap     3.864613   127Ap     3.970396  
     128Ap     4.015551   129Ap     5.016377   130Ap     5.478600  
     131Ap     5.908261   132Ap     6.185018  

    Beta Occupied:                                                        

       1Ap   -88.761913     2Ap   -88.761905     3Ap   -88.705332  
       4Ap   -88.705330     5Ap    -7.765876     6Ap    -7.765835  
       7Ap    -7.712153     8Ap    -7.712150     9Ap    -5.716330  
      10Ap    -5.716214    11Ap    -5.712972    12Ap    -5.712943  
       1App   -5.705330     2App   -5.705319    13Ap    -5.663735  
      14Ap    -5.663732    15Ap    -5.655363    16Ap    -5.655359  
       3App   -5.654066     4App   -5.654063    17Ap    -0.570468  
      18Ap    -0.502169    19Ap    -0.389934    20Ap    -0.329010  
      21Ap    -0.145874    22Ap    -0.124198     5App   -0.101171  
      23Ap    -0.068502     6App   -0.043039    24Ap    -0.008496  
      25Ap     0.023156     7App    0.034732     8App    0.066200  

    Beta Virtual:                                                         

      26Ap     0.254784    27Ap     0.272399    28Ap     0.278742  
      29Ap     0.308434    30Ap     0.321789    31Ap     0.325303  
       9App    0.326728    10App    0.336084    11App    0.349277  
      32Ap     0.352839    33Ap     0.360382    12App    0.369295  
      34Ap     0.372193    35Ap     0.379286    36Ap     0.388849  
      37Ap     0.399032    38Ap     0.461730    39Ap     0.466382  
      40Ap     0.472216    13App    0.500918    14App    0.519182  
      41Ap     0.544020    42Ap     0.547158    43Ap     0.565331  
      15App    0.566004    44Ap     0.578666    16App    0.579807  
      45Ap     0.582802    46Ap     0.596624    17App    0.605490  
      47Ap     0.628854    48Ap     0.634938    18App    0.640536  
      49Ap     0.653683    50Ap     0.669341    19App    0.672090  
      20App    0.675800    51Ap     0.699599    52Ap     0.733636  
      21App    0.775756    22App    0.838929    53Ap     0.843992  
      54Ap     0.852614    23App    0.866098    55Ap     0.873396  
      56Ap     0.879214    24App    0.880215    57Ap     0.889955  
      25App    0.890702    58Ap     0.891341    59Ap     0.896750  
      26App    0.908665    60Ap     0.912078    61Ap     0.925693  
      62Ap     0.947941    27App    0.954689    63Ap     0.959644  
      28App    0.975510    64Ap     0.976676    29App    0.983649  
      65Ap     0.996417    66Ap     1.003871    67Ap     1.011608  
      30App    1.031388    68Ap     1.052318    31App    1.058487  
      69Ap     1.068815    32App    1.077291    33App    1.100943  
      70Ap     1.104554    34App    1.104595    71Ap     1.112619  
      72Ap     1.127553    73Ap     1.139329    35App    1.151886  
      74Ap     1.153654    75Ap     1.160649    36App    1.221130  
      76Ap     1.230848    77Ap     1.300692    37App    1.321686  
      78Ap     1.321926    38App    1.340537    39App    1.344410  
      79Ap     1.355061    80Ap     1.362306    40App    1.415848  
      81Ap     1.434283    82Ap     1.442455    83Ap     1.483909  
      84Ap     1.486080    41App    1.487458    42App    1.518126  
      85Ap     1.540402    43App    1.542241    86Ap     1.552498  
      44App    1.559879    87Ap     1.623050    88Ap     1.674448  
      89Ap     1.677894    90Ap     1.730185    91Ap     1.838740  
      92Ap     1.884169    45App    2.165819    93Ap     2.179353  
      46App    2.199995    94Ap     2.203681    47App    2.206696  
      95Ap     2.216868    96Ap     2.221889    48App    2.230218  
      49App    2.251223    97Ap     2.256632    98Ap     2.275248  
      99Ap     2.282691    50App    2.298171    51App    2.346866  
     100Ap     2.355488   101Ap     2.362877   102Ap     2.382637  
      52App    2.391036    53App    2.393481    54App    2.395507  
      55App    2.409741   103Ap     2.410593   104Ap     2.420206  
      56App    2.436703   105Ap     2.442525    57App    2.444223  
     106Ap     2.488296   107Ap     2.491804   108Ap     2.517708  
      58App    2.517814   109Ap     2.531249    59App    2.535028  
     110Ap     2.551258   111Ap     2.572433    60App    2.582889  
      61App    2.585459   112Ap     2.592689    62App    2.609775  
     113Ap     2.626934   114Ap     2.640482    63App    2.653664  
      64App    2.668161   115Ap     2.685608    65App    2.694666  
     116Ap     2.702497   117Ap     2.733943   118Ap     2.741069  
     119Ap     2.760841   120Ap     2.818969   121Ap     2.828923  
     122Ap     2.831721    66App    2.846360    67App    2.917611  
      68App    2.930047   123Ap     2.983813   124Ap     2.987505  
     125Ap     3.012200   126Ap     3.864613   127Ap     3.970396  
     128Ap     4.015551   129Ap     5.016377   130Ap     5.478600  
     131Ap     5.908261   132Ap     6.185018  

    Final Occupation by Irrep:
             Ap   App 
    DOCC [    25,    8 ]
    SOCC [     0,    0 ]

  @DF-UKS Final Energy: -1592.82627985073123

   => Energetics <=

    Nuclear Repulsion Energy =            299.4701398230125733
    One-Electron Energy =               -2820.3431675942147194
    Two-Electron Energy =                1003.2377174462807261
    DFT Exchange-Correlation Energy =     -75.1903984821070992
    Empirical Dispersion Energy =          -0.0005710437028856
    VV10 Nonlocal Energy =                  0.0000000000000000
    Total Energy =                      -1592.8262798507312255

  UHF NO Occupations:
  HONO-2 :   23 Ap 2.0000000
  HONO-1 :   24 Ap 2.0000000
  HONO-0 :   25 Ap 2.0000000
  LUNO+0 :   26 Ap 0.0000000
  LUNO+1 :   27 Ap 0.0000000
  LUNO+2 :   28 Ap 0.0000000
  LUNO+3 :    9App 0.0000000


Computation Completed


Properties will be evaluated at   0.000000,   0.000000,   0.000000 [a0]

Properties computed using the SCF density matrix

  Nuclear Dipole Moment: [e a0]
     X:     0.0000      Y:     0.0000      Z:     0.0000

  Electronic Dipole Moment: [e a0]
     X:     0.0003      Y:    -0.0007      Z:     0.0000

  Dipole Moment: [e a0]
     X:     0.0003      Y:    -0.0007      Z:     0.0000     Total:     0.0007

  Dipole Moment: [D]
     X:     0.0007      Y:    -0.0017      Z:     0.0000     Total:     0.0018


*** tstop() called on d3-3.compute.lan at Thu Feb 11 15:01:46 2021
Module time:
	user time   =     175.84 seconds =       2.93 minutes
	system time =       0.25 seconds =       0.00 minutes
	total time  =        176 seconds =       2.93 minutes
Total time:
	user time   =    3669.27 seconds =      61.15 minutes
	system time =      13.89 seconds =       0.23 minutes
	total time  =       3686 seconds =      61.43 minutes

*** tstart() called on d3-3.compute.lan
*** at Thu Feb 11 15:01:46 2021


         ------------------------------------------------------------
                                   SCF GRAD                          
                          Rob Parrish, Justin Turney,                
                       Andy Simmonett, and Alex Sokolov              
         ------------------------------------------------------------

  ==> Geometry <==

    Molecular point group: cs
    Full point group: Cs

    Geometry (in Angstrom), charge = -2, multiplicity = 1:

       Center              X                  Y                   Z               Mass       
    ------------   -----------------  -----------------  -----------------  -----------------
         S            0.000000000000     1.083550204185     0.000000000000    31.972071174400
         S            0.000000000000    -1.084018139423     0.000000000000    31.972071174400
         S           -2.008373897442     1.621688075844     0.000000000000    31.972071174400
         S            2.008373897442    -1.621220140606     0.000000000000    31.972071174400

  Nuclear repulsion =  299.470139823012573

  ==> Basis Set <==

  Basis Set: AUG-CC-PVTZ
    Blend: AUG-CC-PVTZ
    Number of shells: 64
    Number of basis function: 200
    Number of Cartesian functions: 236
    Spherical Harmonics?: true
    Max angular momentum: 3

  ==> DFJKGrad: Density-Fitted SCF Gradients <==

    Gradient:                    1
    J tasked:                  Yes
    K tasked:                  Yes
    wK tasked:                 Yes
    Omega:               2.000E-01
    OpenMP threads:              1
    Integrals threads:           1
    Memory [MiB]:            11444
    Schwarz Cutoff:          0E+00
    Fitting Condition:       1E-10

   => Auxiliary Basis Set <=

  Basis Set: (AUG-CC-PVTZ AUX)
    Blend: AUG-CC-PVTZ-JKFIT
    Number of shells: 168
    Number of basis function: 584
    Number of Cartesian functions: 720
    Spherical Harmonics?: true
    Max angular momentum: 4

  ==> DFT Potential <==

   => Composite Functional: WB97X-D <= 

    wB97X-D Hyb-GGA Exchange-Correlation Functional

    J.-D. Chai and M. Head-Gordon, Phys. Chem. Chem. Phys. 10, 6615 (2008)

    Deriv               =              1
    GGA                 =           TRUE
    Meta                =          FALSE

    Exchange Hybrid     =           TRUE
    MP2 Hybrid          =          FALSE

   => Exchange-Correlation Functionals <=

    1.0000   wB97D range-separated functional

   => Exact (HF) Exchange <=

    0.7780            HF,LR [omega = 0.2000]
    0.2220               HF 

   => Molecular Quadrature <=

    Radial Scheme          =       TREUTLER
    Pruning Scheme         =           NONE
    Nuclear Scheme         =       TREUTLER

    BS radius alpha        =              1
    Pruning alpha          =              1
    Radial Points          =             99
    Spherical Points       =            590
    Total Points           =         225884
    Total Blocks           =           1830
    Max Points             =            256
    Max Functions          =            200
    Weights Tolerance      =       1.00E-15


  -Total Gradient:
     Atom            X                  Y                   Z
    ------   -----------------  -----------------  -----------------
       1        0.000035475788    -0.000015188756     0.000000000000
       2        0.000026350217    -0.000015579013     0.000000000000
       3       -0.000024393318     0.000023523011     0.000000000000
       4       -0.000037443080     0.000007165940     0.000000000000


*** tstop() called on d3-3.compute.lan at Thu Feb 11 15:02:27 2021
Module time:
	user time   =      41.17 seconds =       0.69 minutes
	system time =       0.15 seconds =       0.00 minutes
	total time  =         41 seconds =       0.68 minutes
Total time:
	user time   =    3710.44 seconds =      61.84 minutes
	system time =      14.04 seconds =       0.23 minutes
	total time  =       3727 seconds =      62.12 minutes

         ----------------------------------------------------------
                                   FINDIF
                     R. A. King and Jonathon Misiewicz
         ---------------------------------------------------------

  Computing second-derivative from gradients using projected, 
  symmetry-adapted, cartesian coordinates.

  10 gradients passed in, including the reference geometry.
  Generating complete list of displacements from unique ones.

    Operation 3 takes plus displacements of irrep Au to minus ones.
    Operation 2 takes plus displacements of irrep Bu to minus ones.

-------------------------------------------------------------


  ==> Harmonic Vibrational Analysis <==

  non-mass-weighted Hessian:       Symmetric? True   Hermitian? True   Lin Dep Dim?  6 (0)
  projection of translations (True) and rotations (True) removed 6 degrees of freedom (6)
  total projector:                 Symmetric? True   Hermitian? True   Lin Dep Dim?  6 (6)
  mass-weighted Hessian:           Symmetric? True   Hermitian? True   Lin Dep Dim?  6 (0)
  pre-proj  low-frequency mode:    0.0000i [cm^-1]
  pre-proj  low-frequency mode:    0.0000i [cm^-1]
  pre-proj  low-frequency mode:    0.0000i [cm^-1]
  pre-proj  low-frequency mode:    0.0000i [cm^-1]
  pre-proj  low-frequency mode:    0.0000  [cm^-1]
  pre-proj  low-frequency mode:    0.0000  [cm^-1]
  pre-proj  low-frequency mode:   30.2878  [cm^-1]
  pre-proj  all modes:['0.0000i' '0.0000i' '0.0000i' '0.0000i' '0.0000' '0.0000' '30.2878'
 '115.4539' '184.1604' '458.8743' '495.5934' '508.5771']
  projected mass-weighted Hessian: Symmetric? True   Hermitian? True   Lin Dep Dim?  6 (6)
  post-proj low-frequency mode:    0.0000i [cm^-1] (TR)
  post-proj low-frequency mode:    0.0000i [cm^-1] (TR)
  post-proj low-frequency mode:    0.0000i [cm^-1] (TR)
  post-proj low-frequency mode:    0.0000i [cm^-1] (TR)
  post-proj low-frequency mode:    0.0000  [cm^-1] (TR)
  post-proj low-frequency mode:    0.0000  [cm^-1] (TR)
  post-proj low-frequency mode:   30.2878  [cm^-1] (V)
  post-proj  all modes:['0.0000i' '0.0000i' '0.0000i' '0.0000i' '0.0000' '0.0000' '30.2878'
 '115.4539' '184.1604' '458.8743' '495.5934' '508.5771']

  Vibration                       7                   8                   9           
  Freq [cm^-1]                 30.2878             115.4539            184.1604       
  Irrep                           Au                  Bu                  Ag          
  Reduced mass [u]             31.9721             31.9721             31.9721        
  Force const [mDyne/A]         0.0173              0.2511              0.6389        
  Turning point v=0 [a0]        0.3526              0.1806              0.1430        
  RMS dev v=0 [a0 u^1/2]        1.4098              0.7221              0.5717        
  Char temp [K]                43.5774             166.1125            264.9659       
  ----------------------------------------------------------------------------------
      1   S                0.00  0.00  0.50    0.13  0.48  0.00   -0.37  0.15  0.00   
      2   S                0.00  0.00  0.50    0.13  0.48 -0.00    0.37 -0.15 -0.00   
      3   S                0.00  0.00 -0.50   -0.13 -0.48  0.00   -0.34  0.47  0.00   
      4   S                0.00  0.00 -0.50   -0.13 -0.48  0.00    0.34 -0.47 -0.00   

  Vibration                       10                  11                  12          
  Freq [cm^-1]                 458.8743            495.5934            508.5771       
  Irrep                           Ag                  Bu                  Ag          
  Reduced mass [u]             31.9721             31.9721             31.9721        
  Force const [mDyne/A]         3.9665              4.6267              4.8723        
  Turning point v=0 [a0]        0.0906              0.0872              0.0860        
  RMS dev v=0 [a0 u^1/2]        0.3622              0.3485              0.3440        
  Char temp [K]                660.2179            713.0486            731.7293       
  ----------------------------------------------------------------------------------
      1   S               -0.02  0.68  0.00    0.48 -0.13 -0.00    0.54  0.13  0.00   
      2   S                0.02 -0.68  0.00    0.48 -0.13  0.00   -0.54 -0.13 -0.00   
      3   S                0.16 -0.12  0.00   -0.48  0.13  0.00   -0.44  0.07 -0.00   
      4   S               -0.16  0.12 -0.00   -0.48  0.13 -0.00    0.44 -0.07  0.00   

  ==> Thermochemistry Components <==

  Entropy, S
    Electronic S            0.000 [cal/(mol K)]        0.000 [J/(mol K)]       0.00000000 [mEh/K] (multiplicity = 1)
    Translational S        40.451 [cal/(mol K)]      169.248 [J/(mol K)]       0.06446314 [mEh/K] (mol. weight = 127.8883 [u], P = 101325.00 [Pa])
    Rotational S           26.205 [cal/(mol K)]      109.642 [J/(mol K)]       0.04176061 [mEh/K] (symmetry no. = 2)
    Vibrational S          13.347 [cal/(mol K)]       55.844 [J/(mol K)]       0.02126983 [mEh/K]
  Total S                  80.003 [cal/(mol K)]      334.734 [J/(mol K)]       0.12749358 [mEh/K]
  Correction S              0.000 [cal/(mol K)]        0.000 [J/(mol K)]       0.00000000 [mEh/K]

  Constant volume heat capacity, Cv
    Electronic Cv           0.000 [cal/(mol K)]        0.000 [J/(mol K)]       0.00000000 [mEh/K]
    Translational Cv        2.981 [cal/(mol K)]       12.472 [J/(mol K)]       0.00475022 [mEh/K]
    Rotational Cv           2.981 [cal/(mol K)]       12.472 [J/(mol K)]       0.00475022 [mEh/K]
    Vibrational Cv          9.614 [cal/(mol K)]       40.224 [J/(mol K)]       0.01532044 [mEh/K]
  Total Cv                 15.575 [cal/(mol K)]       65.167 [J/(mol K)]       0.02482087 [mEh/K]
  Correction Cv             0.000 [cal/(mol K)]        0.000 [J/(mol K)]       0.00000000 [mEh/K]

  Constant pressure heat capacity, Cp
    Electronic Cp           0.000 [cal/(mol K)]        0.000 [J/(mol K)]       0.00000000 [mEh/K]
    Translational Cp        4.968 [cal/(mol K)]       20.786 [J/(mol K)]       0.00791703 [mEh/K]
    Rotational Cp           2.981 [cal/(mol K)]       12.472 [J/(mol K)]       0.00475022 [mEh/K]
    Vibrational Cp          9.614 [cal/(mol K)]       40.224 [J/(mol K)]       0.01532044 [mEh/K]
  Total Cp                 17.563 [cal/(mol K)]       73.482 [J/(mol K)]       0.02798768 [mEh/K]
  Correction Cp             0.000 [cal/(mol K)]        0.000 [J/(mol K)]       0.00000000 [mEh/K]

  ==> Thermochemistry Energy Analysis <==

  Raw electronic energy, E0
  Total E0, Electronic energy at well bottom at 0 [K]                -1592.82627986 [Eh]

  Zero-point energy, ZPE_vib = Sum_i nu_i / 2
    Electronic ZPE          0.000 [kcal/mol]        0.000 [kJ/mol]       0.00000000 [Eh]
    Translational ZPE       0.000 [kcal/mol]        0.000 [kJ/mol]       0.00000000 [Eh]
    Rotational ZPE          0.000 [kcal/mol]        0.000 [kJ/mol]       0.00000000 [Eh]
    Vibrational ZPE         2.563 [kcal/mol]       10.724 [kJ/mol]       0.00408463 [Eh]         896.474 [cm^-1]
  Correction ZPE            2.563 [kcal/mol]       10.724 [kJ/mol]       0.00408463 [Eh]         896.474 [cm^-1]
  Total ZPE, Electronic energy at 0 [K]                              -1592.82219523 [Eh]

  Thermal Energy, E (includes ZPE)
    Electronic E            0.000 [kcal/mol]        0.000 [kJ/mol]       0.00000000 [Eh]
    Translational E         0.889 [kcal/mol]        3.718 [kJ/mol]       0.00141628 [Eh]
    Rotational E            0.889 [kcal/mol]        3.718 [kJ/mol]       0.00141628 [Eh]
    Vibrational E           4.364 [kcal/mol]       18.259 [kJ/mol]       0.00695451 [Eh]
  Correction E              6.141 [kcal/mol]       25.696 [kJ/mol]       0.00978707 [Eh]
  Total E, Electronic energy at  298.15 [K]                          -1592.81649280 [Eh]

  Enthalpy, H_trans = E_trans + k_B * T
    Electronic H            0.000 [kcal/mol]        0.000 [kJ/mol]       0.00000000 [Eh]
    Translational H         1.481 [kcal/mol]        6.197 [kJ/mol]       0.00236046 [Eh]
    Rotational H            0.889 [kcal/mol]        3.718 [kJ/mol]       0.00141628 [Eh]
    Vibrational H           4.364 [kcal/mol]       18.259 [kJ/mol]       0.00695451 [Eh]
  Correction H              6.734 [kcal/mol]       28.175 [kJ/mol]       0.01073125 [Eh]
  Total H, Enthalpy at  298.15 [K]                                   -1592.81554861 [Eh]

  Gibbs free energy, G = H - T * S
    Electronic G            0.000 [kcal/mol]        0.000 [kJ/mol]       0.00000000 [Eh]
    Translational G       -10.579 [kcal/mol]      -44.264 [kJ/mol]      -0.01685922 [Eh]
    Rotational G           -6.924 [kcal/mol]      -28.971 [kJ/mol]      -0.01103465 [Eh]
    Vibrational G           0.385 [kcal/mol]        1.609 [kJ/mol]       0.00061291 [Eh]
  Correction G            -17.119 [kcal/mol]      -71.626 [kJ/mol]      -0.02728096 [Eh]
  Total G, Free enthalpy at  298.15 [K]                              -1592.85356082 [Eh]

    Psi4 stopped on: Thursday, 11 February 2021 03:02PM
    Psi4 wall time for execution: 1:02:06.92

*** Psi4 exiting successfully. Buy a developer a beer!
