
    -----------------------------------------------------------------------
          Psi4: An Open-Source Ab Initio Electronic Structure Package
                               Psi4 1.4a2.dev191 

                         Git: Rev {master} 0ab5346 


    R. M. Parrish, L. A. Burns, D. G. A. Smith, A. C. Simmonett,
    A. E. DePrince III, E. G. Hohenstein, U. Bozkaya, A. Yu. Sokolov,
    R. Di Remigio, R. M. Richard, J. F. Gonthier, A. M. James,
    H. R. McAlexander, A. Kumar, M. Saitow, X. Wang, B. P. Pritchard,
    P. Verma, H. F. Schaefer III, K. Patkowski, R. A. King, E. F. Valeev,
    F. A. Evangelista, J. M. Turney, T. D. Crawford, and C. D. Sherrill,
    J. Chem. Theory Comput. 13(7) pp 3185--3197 (2017).
    (doi: 10.1021/acs.jctc.7b00174)


                         Additional Contributions by
    P. Kraus, H. Kruse, M. H. Lechner, M. C. Schieber, R. A. Shaw,
    A. Alenaizan, R. Galvelis, Z. L. Glick, S. Lehtola, and J. P. Misiewicz

    -----------------------------------------------------------------------


    Psi4 started on: Tuesday, 02 February 2021 11:28AM

    Process ID: 11191
    Host:       c1-9.compute.lan
    PSIDATADIR: /apps/gb/PSI4/1.4.0/share/psi4
    Memory:     500.0 MiB
    Threads:    1
    
  ==> Input File <==

--------------------------------------------------------------------------
memory 10 GB

molecule  {
-2 1
S
S 1 r1
r1 = 2.0
}

set {
reference uks
basis aug-cc-pvtz
g_convergence gau_verytight
dft_spherical_points 590
dft_radial_points 99
}

optimize('wb97m-v')
frequencies('wb97m-v')

--------------------------------------------------------------------------

  Memory set to   9.313 GiB by Python driver.
gradient() will perform gradient computation by finite difference of analytic energies.

         ----------------------------------------------------------
                                   FINDIF
                     R. A. King and Jonathon Misiewicz
         ---------------------------------------------------------

  Using finite-differences of energies to determine gradients.
    Generating geometries for use with 3-point formula.
    Displacement size will be 5.00e-03.
    Number of atoms is 2.
    Number of symmetric SALCs is 1.
    Translations projected? 1. Rotations projected? 1.
    Number of geometries (including reference) is 3.

  //>>>>>>>>>>>>>>>>>>>>>>>>>>>>>>>>>>>//
  //    Loading displacement 1 of 3    //
  //<<<<<<<<<<<<<<<<<<<<<<<<<<<<<<<<<<<//

*** tstart() called on c1-9.compute.lan
*** at Tue Feb  2 11:28:42 2021

   => Loading Basis Set <=

    Name: AUG-CC-PVTZ
    Role: ORBITAL
    Keyword: BASIS
    atoms 1-2 entry S          line   906 file /apps/gb/PSI4/1.4.0/share/psi4/basis/aug-cc-pvtz.gbs 


         ---------------------------------------------------------
                                   SCF
               by Justin Turney, Rob Parrish, Andy Simmonett
                          and Daniel G. A. Smith
                              UKS Reference
                        1 Threads,   9536 MiB Core
         ---------------------------------------------------------

  ==> Geometry <==

    Molecular point group: d2h
    Full point group: D_inf_h

    Geometry (in Angstrom), charge = -2, multiplicity = 1:

       Center              X                  Y                   Z               Mass       
    ------------   -----------------  -----------------  -----------------  -----------------
         S            0.000000000000     0.000000000000    -1.000000000000    31.972071174400
         S            0.000000000000     0.000000000000     1.000000000000    31.972071174400

  Running in d2h symmetry.

  Rotational constants: A = ************  B =      0.26363  C =      0.26363 [cm^-1]
  Rotational constants: A = ************  B =   7903.44495  C =   7903.44495 [MHz]
  Nuclear repulsion =   67.734682965759930

  Charge       = -2
  Multiplicity = 1
  Electrons    = 34
  Nalpha       = 17
  Nbeta        = 17

  ==> Algorithm <==

  SCF Algorithm Type is DF.
  DIIS enabled.
  MOM disabled.
  Fractional occupation disabled.
  Guess Type is SAD.
  Energy threshold   = 1.00e-08
  Density threshold  = 1.00e-08
  Integral threshold = 0.00e+00

  ==> Primary Basis <==

  Basis Set: AUG-CC-PVTZ
    Blend: AUG-CC-PVTZ
    Number of shells: 32
    Number of basis function: 100
    Number of Cartesian functions: 118
    Spherical Harmonics?: true
    Max angular momentum: 3

  ==> DFT Potential <==

   => Composite Functional: WB97M-V <= 

    wB97M-V Hyb-GGA Exchange-Correlation Functional

    N. Mardirossian and M. Head-Gordon, J. Chem. Phys. 144, 214110 (2016)

    Deriv               =              1
    GGA                 =           TRUE
    Meta                =           TRUE

    Exchange Hybrid     =           TRUE
    MP2 Hybrid          =          FALSE

   => Exchange-Correlation Functionals <=

    1.0000   wB97M-V exchange-correlation functional

   => Exact (HF) Exchange <=

    0.8500            HF,LR [omega = 0.3000]
    0.1500               HF 

   => VV10 Non-Local Parameters <=

    VV10 B              =     6.0000E+00
    VV10 C              =     1.0000E-02

   => Molecular Quadrature <=

    Radial Scheme          =       TREUTLER
    Pruning Scheme         =           NONE
    Nuclear Scheme         =       TREUTLER

    BS radius alpha        =              1
    Pruning alpha          =              1
    Radial Points          =             99
    Spherical Points       =            590
    Total Points           =         113384
    Total Blocks           =            986
    Max Points             =            255
    Max Functions          =            100
    Weights Tolerance      =       1.00E-15

   => Loading Basis Set <=

    Name: (AUG-CC-PVTZ AUX)
    Role: JKFIT
    Keyword: DF_BASIS_SCF
    atoms 1-2 entry S          line   730 file /apps/gb/PSI4/1.4.0/share/psi4/basis/aug-cc-pvtz-jkfit.gbs 

  ==> Pre-Iterations <==

   -------------------------------------------------------
    Irrep   Nso     Nmo     Nalpha   Nbeta   Ndocc  Nsocc
   -------------------------------------------------------
     Ag        21      21       0       0       0       0
     B1g        5       5       0       0       0       0
     B2g       12      12       0       0       0       0
     B3g       12      12       0       0       0       0
     Au         5       5       0       0       0       0
     B1u       21      21       0       0       0       0
     B2u       12      12       0       0       0       0
     B3u       12      12       0       0       0       0
   -------------------------------------------------------
    Total     100     100      17      17      17       0
   -------------------------------------------------------

  ==> Integral Setup <==

  ==> DiskDFJK: Density-Fitted J/K Matrices <==

    J tasked:                  Yes
    K tasked:                  Yes
    wK tasked:                 Yes
    Omega:               3.000E-01
    OpenMP threads:              1
    Integrals threads:           1
    Memory [MiB]:             6378
    Algorithm:                Core
    Integral Cache:           NONE
    Schwarz Cutoff:          1E-12
    Fitting Condition:       1E-10

   => Auxiliary Basis Set <=

  Basis Set: (AUG-CC-PVTZ AUX)
    Blend: AUG-CC-PVTZ-JKFIT
    Number of shells: 84
    Number of basis function: 292
    Number of Cartesian functions: 360
    Spherical Harmonics?: true
    Max angular momentum: 4

  Cached 100.0% of DFT collocation blocks in 0.756 [GiB].

  Minimum eigenvalue in the overlap matrix is 2.7190206739E-04.
  Using Symmetric Orthogonalization.

  SCF Guess: Superposition of Atomic Densities via on-the-fly atomic UHF.

  ==> Iterations <==

                           Total Energy        Delta E     RMS |[F,P]|

   @DF-UKS iter SAD:  -795.86916376921477   -7.95869e+02   0.00000e+00 
    Occupation by irrep:
             Ag   B1g   B2g   B3g    Au   B1u   B2u   B3u 
    DOCC [     5,    0,    2,    1,    0,    5,    2,    2 ]
    SOCC [     0,    0,    0,    0,    0,    0,    0,    0 ]

   @DF-UKS iter   1:  -796.03996052622347   -1.70797e-01   1.43398e-02 DIIS
    Occupation by irrep:
             Ag   B1g   B2g   B3g    Au   B1u   B2u   B3u 
    DOCC [     5,    0,    2,    2,    0,    4,    2,    2 ]
    SOCC [     0,    0,    0,    0,    0,    0,    0,    0 ]

   @DF-UKS iter   2:  -795.38664111556341    6.53319e-01   2.41064e-02 DIIS
   @DF-UKS iter   3:  -796.24471294252066   -8.58072e-01   4.39697e-03 DIIS
   @DF-UKS iter   4:  -796.27608079337813   -3.13679e-02   9.00305e-04 DIIS
   @DF-UKS iter   5:  -796.27812521349267   -2.04442e-03   3.48260e-04 DIIS
   @DF-UKS iter   6:  -796.27832358352782   -1.98370e-04   1.53590e-04 DIIS
   @DF-UKS iter   7:  -796.27836944249509   -4.58590e-05   6.22830e-05 DIIS
   @DF-UKS iter   8:  -796.27837834497552   -8.90248e-06   1.67747e-05 DIIS
   @DF-UKS iter   9:  -796.27837969612904   -1.35115e-06   2.63416e-06 DIIS
   @DF-UKS iter  10:  -796.27837977746674   -8.13377e-08   4.82104e-07 DIIS
   @DF-UKS iter  11:  -796.27837977958984   -2.12310e-09   1.05345e-07 DIIS
   @DF-UKS iter  12:  -796.27837977962668   -3.68345e-11   1.89177e-08 DIIS
   @DF-UKS iter  13:  -796.27837977962713   -4.54747e-13   1.46965e-09 DIIS
  Energy and wave function converged.


  ==> Post-Iterations <==

   @Spin Contamination Metric:  -1.421085472E-14
   @S^2 Expected:                0.000000000E+00
   @S^2 Observed:               -1.421085472E-14
   @S   Expected:                0.000000000E+00
   @S   Observed:                0.000000000E+00

    Orbital Energies [Eh]
    ---------------------

    Alpha Occupied:                                                       

       1B1u  -88.783304     1Ag   -88.783301     2Ag    -7.694693  
       2B1u   -7.694608     3Ag    -5.605875     3B1u   -5.605517  
       1B3u   -5.599188     1B2u   -5.599188     1B2g   -5.599169  
       1B3g   -5.599169     4Ag    -0.465664     4B1u   -0.274958  
       5Ag    -0.025858     2B3u   -0.000072     2B2u   -0.000072  
       2B3g    0.128562     2B2g    0.128562  

    Alpha Virtual:                                                        

       5B1u    0.264897     6Ag     0.330289     3B2u    0.352287  
       3B3u    0.352287     3B3g    0.363492     3B2g    0.363492  
       7Ag     0.411038     6B1u    0.437372     7B1u    0.527396  
       8Ag     0.558612     1B1g    0.558623     4B2u    0.610452  
       4B3u    0.610452     9Ag     0.619523     1Au     0.643732  
       8B1u    0.643743     4B3g    0.683985     4B2g    0.683985  
       9B1u    0.691094     5B2u    0.842726     5B3u    0.842726  
      10B1u    0.912751    10Ag     0.924051     5B3g    0.941486  
       5B2g    0.941486     6B3u    0.961960     6B2u    0.961960  
      11Ag     0.964152    12Ag     0.998745     2B1g    0.998753  
      13Ag     1.074063     2Au     1.088976    11B1u    1.088987  
       7B3u    1.111673     7B2u    1.111673     6B2g    1.154047  
       6B3g    1.154047     3B1g    1.183329    14Ag     1.183343  
       7B2g    1.250774     7B3g    1.250774    12B1u    1.255585  
       8B2u    1.405821     8B3u    1.405821    13B1u    1.438317  
       3Au     1.438334    14B1u    1.453796     8B2g    1.603776  
       8B3g    1.603776    15Ag     1.682450    15B1u    1.838464  
       4B1g    2.213421    16Ag     2.213426    16B1u    2.255494  
       9B3u    2.266594     9B2u    2.266594     4Au     2.284453  
      17B1u    2.284461    17Ag     2.375080     9B2g    2.396882  
       9B3g    2.396882    10B3u    2.447549    10B2u    2.447549  
       5B1g    2.488485    18Ag     2.488495    19Ag     2.497618  
      11B3u    2.529051    11B2u    2.529051    12B3u    2.544433  
      12B2u    2.544433    10B2g    2.602543    10B3g    2.602543  
      18B1u    2.727923     5Au     2.727930    11B2g    2.740780  
      11B3g    2.740780    19B1u    2.846383    20Ag     2.951386  
      12B2g    3.035598    12B3g    3.035598    20B1u    4.085863  
      21Ag     4.919565    21B1u    5.734936  

    Beta Occupied:                                                        

       1B1u  -88.783304     1Ag   -88.783301     2Ag    -7.694693  
       2B1u   -7.694608     3Ag    -5.605875     3B1u   -5.605517  
       1B3u   -5.599188     1B2u   -5.599188     1B2g   -5.599169  
       1B3g   -5.599169     4Ag    -0.465664     4B1u   -0.274958  
       5Ag    -0.025858     2B3u   -0.000072     2B2u   -0.000072  
       2B3g    0.128562     2B2g    0.128562  

    Beta Virtual:                                                         

       5B1u    0.264897     6Ag     0.330289     3B2u    0.352287  
       3B3u    0.352287     3B3g    0.363492     3B2g    0.363492  
       7Ag     0.411038     6B1u    0.437372     7B1u    0.527396  
       8Ag     0.558612     1B1g    0.558623     4B2u    0.610452  
       4B3u    0.610452     9Ag     0.619523     1Au     0.643732  
       8B1u    0.643743     4B3g    0.683985     4B2g    0.683985  
       9B1u    0.691094     5B2u    0.842726     5B3u    0.842726  
      10B1u    0.912751    10Ag     0.924051     5B3g    0.941486  
       5B2g    0.941486     6B3u    0.961960     6B2u    0.961960  
      11Ag     0.964152    12Ag     0.998745     2B1g    0.998753  
      13Ag     1.074063     2Au     1.088976    11B1u    1.088987  
       7B3u    1.111673     7B2u    1.111673     6B2g    1.154047  
       6B3g    1.154047     3B1g    1.183329    14Ag     1.183343  
       7B2g    1.250774     7B3g    1.250774    12B1u    1.255585  
       8B2u    1.405821     8B3u    1.405821    13B1u    1.438317  
       3Au     1.438334    14B1u    1.453796     8B2g    1.603776  
       8B3g    1.603776    15Ag     1.682450    15B1u    1.838464  
       4B1g    2.213421    16Ag     2.213426    16B1u    2.255494  
       9B3u    2.266594     9B2u    2.266594     4Au     2.284453  
      17B1u    2.284461    17Ag     2.375080     9B2g    2.396882  
       9B3g    2.396882    10B3u    2.447549    10B2u    2.447549  
       5B1g    2.488485    18Ag     2.488495    19Ag     2.497618  
      11B3u    2.529051    11B2u    2.529051    12B3u    2.544433  
      12B2u    2.544433    10B2g    2.602543    10B3g    2.602543  
      18B1u    2.727923     5Au     2.727930    11B2g    2.740780  
      11B3g    2.740780    19B1u    2.846383    20Ag     2.951386  
      12B2g    3.035598    12B3g    3.035598    20B1u    4.085863  
      21Ag     4.919565    21B1u    5.734936  

    Final Occupation by Irrep:
             Ag   B1g   B2g   B3g    Au   B1u   B2u   B3u 
    DOCC [     5,    0,    2,    2,    0,    4,    2,    2 ]
    SOCC [     0,    0,    0,    0,    0,    0,    0,    0 ]

  @DF-UKS Final Energy:  -796.27837977962713

   => Energetics <=

    Nuclear Repulsion Energy =             67.7346829657599301
    One-Electron Energy =               -1249.0359083365938204
    Two-Electron Energy =                 424.6041617780300044
    DFT Exchange-Correlation Energy =     -39.7195937450176899
    Empirical Dispersion Energy =           0.0000000000000000
    VV10 Nonlocal Energy =                  0.1382775581944623
    Total Energy =                       -796.2783797796272438

  UHF NO Occupations:
  HONO-2 :    2B3g 2.0000000
  HONO-1 :    4 Ag 2.0000000
  HONO-0 :    5 Ag 2.0000000
  LUNO+0 :    5B1u 0.0000000
  LUNO+1 :    3B3g 0.0000000
  LUNO+2 :    6B1u 0.0000000
  LUNO+3 :    3B2u 0.0000000


Computation Completed


Properties will be evaluated at   0.000000,   0.000000,   0.000000 [a0]

Properties computed using the SCF density matrix

  Nuclear Dipole Moment: [e a0]
     X:     0.0000      Y:     0.0000      Z:     0.0000

  Electronic Dipole Moment: [e a0]
     X:     0.0000      Y:     0.0000      Z:     0.0000

  Dipole Moment: [e a0]
     X:     0.0000      Y:     0.0000      Z:     0.0000     Total:     0.0000

  Dipole Moment: [D]
     X:     0.0000      Y:     0.0000      Z:     0.0000     Total:     0.0000


*** tstop() called on c1-9.compute.lan at Tue Feb  2 11:29:19 2021
Module time:
	user time   =      36.16 seconds =       0.60 minutes
	system time =       0.64 seconds =       0.01 minutes
	total time  =         37 seconds =       0.62 minutes
Total time:
	user time   =      36.16 seconds =       0.60 minutes
	system time =       0.64 seconds =       0.01 minutes
	total time  =         37 seconds =       0.62 minutes

  //>>>>>>>>>>>>>>>>>>>>>>>>>>>>>>>>>>>//
  //    Loading displacement 2 of 3    //
  //<<<<<<<<<<<<<<<<<<<<<<<<<<<<<<<<<<<//

*** tstart() called on c1-9.compute.lan
*** at Tue Feb  2 11:29:19 2021

   => Loading Basis Set <=

    Name: AUG-CC-PVTZ
    Role: ORBITAL
    Keyword: BASIS
    atoms 1-2 entry S          line   906 file /apps/gb/PSI4/1.4.0/share/psi4/basis/aug-cc-pvtz.gbs 


         ---------------------------------------------------------
                                   SCF
               by Justin Turney, Rob Parrish, Andy Simmonett
                          and Daniel G. A. Smith
                              UKS Reference
                        1 Threads,   9536 MiB Core
         ---------------------------------------------------------

  ==> Geometry <==

    Molecular point group: d2h
    Full point group: D_inf_h

    Geometry (in Angstrom), charge = -2, multiplicity = 1:

       Center              X                  Y                   Z               Mass       
    ------------   -----------------  -----------------  -----------------  -----------------
         S            0.000000000000     0.000000000000    -1.000330880180    31.972071174400
         S            0.000000000000     0.000000000000     1.000330880180    31.972071174400

  Running in d2h symmetry.

  Rotational constants: A = ************  B =      0.26346  C =      0.26346 [cm^-1]
  Rotational constants: A = ************  B =   7898.21736  C =   7898.21736 [MHz]
  Nuclear repulsion =   67.712278314902932

  Charge       = -2
  Multiplicity = 1
  Electrons    = 34
  Nalpha       = 17
  Nbeta        = 17

  ==> Algorithm <==

  SCF Algorithm Type is DF.
  DIIS enabled.
  MOM disabled.
  Fractional occupation disabled.
  Guess Type is SAD.
  Energy threshold   = 1.00e-08
  Density threshold  = 1.00e-08
  Integral threshold = 0.00e+00

  ==> Primary Basis <==

  Basis Set: AUG-CC-PVTZ
    Blend: AUG-CC-PVTZ
    Number of shells: 32
    Number of basis function: 100
    Number of Cartesian functions: 118
    Spherical Harmonics?: true
    Max angular momentum: 3

  ==> DFT Potential <==

   => Composite Functional: WB97M-V <= 

    wB97M-V Hyb-GGA Exchange-Correlation Functional

    N. Mardirossian and M. Head-Gordon, J. Chem. Phys. 144, 214110 (2016)

    Deriv               =              1
    GGA                 =           TRUE
    Meta                =           TRUE

    Exchange Hybrid     =           TRUE
    MP2 Hybrid          =          FALSE

   => Exchange-Correlation Functionals <=

    1.0000   wB97M-V exchange-correlation functional

   => Exact (HF) Exchange <=

    0.8500            HF,LR [omega = 0.3000]
    0.1500               HF 

   => VV10 Non-Local Parameters <=

    VV10 B              =     6.0000E+00
    VV10 C              =     1.0000E-02

   => Molecular Quadrature <=

    Radial Scheme          =       TREUTLER
    Pruning Scheme         =           NONE
    Nuclear Scheme         =       TREUTLER

    BS radius alpha        =              1
    Pruning alpha          =              1
    Radial Points          =             99
    Spherical Points       =            590
    Total Points           =         113376
    Total Blocks           =            984
    Max Points             =            255
    Max Functions          =            100
    Weights Tolerance      =       1.00E-15

   => Loading Basis Set <=

    Name: (AUG-CC-PVTZ AUX)
    Role: JKFIT
    Keyword: DF_BASIS_SCF
    atoms 1-2 entry S          line   730 file /apps/gb/PSI4/1.4.0/share/psi4/basis/aug-cc-pvtz-jkfit.gbs 

  ==> Pre-Iterations <==

   -------------------------------------------------------
    Irrep   Nso     Nmo     Nalpha   Nbeta   Ndocc  Nsocc
   -------------------------------------------------------
     Ag        21      21       0       0       0       0
     B1g        5       5       0       0       0       0
     B2g       12      12       0       0       0       0
     B3g       12      12       0       0       0       0
     Au         5       5       0       0       0       0
     B1u       21      21       0       0       0       0
     B2u       12      12       0       0       0       0
     B3u       12      12       0       0       0       0
   -------------------------------------------------------
    Total     100     100      17      17      17       0
   -------------------------------------------------------

  ==> Integral Setup <==

  ==> DiskDFJK: Density-Fitted J/K Matrices <==

    J tasked:                  Yes
    K tasked:                  Yes
    wK tasked:                 Yes
    Omega:               3.000E-01
    OpenMP threads:              1
    Integrals threads:           1
    Memory [MiB]:             6378
    Algorithm:                Core
    Integral Cache:           NONE
    Schwarz Cutoff:          1E-12
    Fitting Condition:       1E-10

   => Auxiliary Basis Set <=

  Basis Set: (AUG-CC-PVTZ AUX)
    Blend: AUG-CC-PVTZ-JKFIT
    Number of shells: 84
    Number of basis function: 292
    Number of Cartesian functions: 360
    Spherical Harmonics?: true
    Max angular momentum: 4

  Cached 100.0% of DFT collocation blocks in 0.756 [GiB].

  Minimum eigenvalue in the overlap matrix is 2.7231679894E-04.
  Using Symmetric Orthogonalization.

  SCF Guess: Superposition of Atomic Densities via on-the-fly atomic UHF.

  ==> Iterations <==

                           Total Energy        Delta E     RMS |[F,P]|

   @DF-UKS iter SAD:  -795.86832931933156   -7.95868e+02   0.00000e+00 
    Occupation by irrep:
             Ag   B1g   B2g   B3g    Au   B1u   B2u   B3u 
    DOCC [     5,    0,    2,    1,    0,    5,    2,    2 ]
    SOCC [     0,    0,    0,    0,    0,    0,    0,    0 ]

   @DF-UKS iter   1:  -796.04010684634397   -1.71778e-01   1.43376e-02 DIIS
    Occupation by irrep:
             Ag   B1g   B2g   B3g    Au   B1u   B2u   B3u 
    DOCC [     5,    0,    2,    2,    0,    4,    2,    2 ]
    SOCC [     0,    0,    0,    0,    0,    0,    0,    0 ]

   @DF-UKS iter   2:  -795.38715722191262    6.52950e-01   2.40983e-02 DIIS
   @DF-UKS iter   3:  -796.24478426845701   -8.57627e-01   4.39693e-03 DIIS
   @DF-UKS iter   4:  -796.27614406692373   -3.13598e-02   9.00809e-04 DIIS
   @DF-UKS iter   5:  -796.27819006741368   -2.04600e-03   3.47921e-04 DIIS
   @DF-UKS iter   6:  -796.27838822026240   -1.98153e-04   1.53357e-04 DIIS
   @DF-UKS iter   7:  -796.27843395912259   -4.57389e-05   6.21952e-05 DIIS
   @DF-UKS iter   8:  -796.27844283284765   -8.87373e-06   1.67480e-05 DIIS
   @DF-UKS iter   9:  -796.27844417819779   -1.34535e-06   2.63065e-06 DIIS
   @DF-UKS iter  10:  -796.27844425919886   -8.10011e-08   4.81470e-07 DIIS
   @DF-UKS iter  11:  -796.27844426131503   -2.11617e-09   1.05095e-07 DIIS
   @DF-UKS iter  12:  -796.27844426135186   -3.68345e-11   1.88746e-08 DIIS
   @DF-UKS iter  13:  -796.27844426135232   -4.54747e-13   1.46796e-09 DIIS
  Energy and wave function converged.


  ==> Post-Iterations <==

   @Spin Contamination Metric:   2.486899575E-14
   @S^2 Expected:                0.000000000E+00
   @S^2 Observed:                2.486899575E-14
   @S   Expected:                0.000000000E+00
   @S   Observed:                0.000000000E+00

    Orbital Energies [Eh]
    ---------------------

    Alpha Occupied:                                                       

       1B1u  -88.783319     1Ag   -88.783316     2Ag    -7.694696  
       2B1u   -7.694612     3Ag    -5.605880     3B1u   -5.605523  
       1B3u   -5.599191     1B2u   -5.599191     1B2g   -5.599172  
       1B3g   -5.599172     4Ag    -0.465496     4B1u   -0.275010  
       5Ag    -0.025797     2B3u    0.000012     2B2u    0.000012  
       2B3g    0.128512     2B2g    0.128512  

    Alpha Virtual:                                                        

       5B1u    0.264898     6Ag     0.330298     3B2u    0.352304  
       3B3u    0.352304     3B3g    0.363491     3B2g    0.363491  
       7Ag     0.411056     6B1u    0.437330     7B1u    0.527301  
       8Ag     0.558623     1B1g    0.558634     4B2u    0.610438  
       4B3u    0.610438     9Ag     0.619575     1Au     0.643719  
       8B1u    0.643729     4B3g    0.683998     4B2g    0.683998  
       9B1u    0.691010     5B2u    0.842763     5B3u    0.842763  
      10B1u    0.912785    10Ag     0.924136     5B3g    0.941485  
       5B2g    0.941485     6B3u    0.961975     6B2u    0.961975  
      11Ag     0.964213    12Ag     0.998811     2B1g    0.998819  
      13Ag     1.073937     2Au     1.088957    11B1u    1.088968  
       7B3u    1.111704     7B2u    1.111704     6B2g    1.153955  
       6B3g    1.153955     3B1g    1.183247    14Ag     1.183262  
       7B2g    1.250731     7B3g    1.250731    12B1u    1.255391  
       8B2u    1.405710     8B3u    1.405710    13B1u    1.438220  
       3Au     1.438237    14B1u    1.453514     8B2g    1.603682  
       8B3g    1.603682    15Ag     1.682209    15B1u    1.838502  
       4B1g    2.213417    16Ag     2.213422    16B1u    2.255616  
       9B3u    2.266731     9B2u    2.266731     4Au     2.284424  
      17B1u    2.284432    17Ag     2.375265     9B2g    2.396987  
       9B3g    2.396987    10B3u    2.447398    10B2u    2.447398  
       5B1g    2.488699    18Ag     2.488709    19Ag     2.497801  
      11B3u    2.529042    11B2u    2.529042    12B3u    2.544481  
      12B2u    2.544481    10B2g    2.602515    10B3g    2.602515  
      18B1u    2.727704     5Au     2.727710    11B2g    2.740420  
      11B3g    2.740420    19B1u    2.846050    20Ag     2.950286  
      12B2g    3.035140    12B3g    3.035140    20B1u    4.085567  
      21Ag     4.918553    21B1u    5.734601  

    Beta Occupied:                                                        

       1B1u  -88.783319     1Ag   -88.783316     2Ag    -7.694696  
       2B1u   -7.694612     3Ag    -5.605880     3B1u   -5.605523  
       1B3u   -5.599191     1B2u   -5.599191     1B2g   -5.599172  
       1B3g   -5.599172     4Ag    -0.465496     4B1u   -0.275010  
       5Ag    -0.025797     2B3u    0.000012     2B2u    0.000012  
       2B3g    0.128512     2B2g    0.128512  

    Beta Virtual:                                                         

       5B1u    0.264898     6Ag     0.330298     3B2u    0.352304  
       3B3u    0.352304     3B3g    0.363491     3B2g    0.363491  
       7Ag     0.411056     6B1u    0.437330     7B1u    0.527301  
       8Ag     0.558623     1B1g    0.558634     4B2u    0.610438  
       4B3u    0.610438     9Ag     0.619575     1Au     0.643719  
       8B1u    0.643729     4B3g    0.683998     4B2g    0.683998  
       9B1u    0.691010     5B2u    0.842763     5B3u    0.842763  
      10B1u    0.912785    10Ag     0.924136     5B3g    0.941485  
       5B2g    0.941485     6B3u    0.961975     6B2u    0.961975  
      11Ag     0.964213    12Ag     0.998811     2B1g    0.998819  
      13Ag     1.073937     2Au     1.088957    11B1u    1.088968  
       7B3u    1.111704     7B2u    1.111704     6B2g    1.153955  
       6B3g    1.153955     3B1g    1.183247    14Ag     1.183262  
       7B2g    1.250731     7B3g    1.250731    12B1u    1.255391  
       8B2u    1.405710     8B3u    1.405710    13B1u    1.438220  
       3Au     1.438237    14B1u    1.453514     8B2g    1.603682  
       8B3g    1.603682    15Ag     1.682209    15B1u    1.838502  
       4B1g    2.213417    16Ag     2.213422    16B1u    2.255616  
       9B3u    2.266731     9B2u    2.266731     4Au     2.284424  
      17B1u    2.284432    17Ag     2.375265     9B2g    2.396987  
       9B3g    2.396987    10B3u    2.447398    10B2u    2.447398  
       5B1g    2.488699    18Ag     2.488709    19Ag     2.497801  
      11B3u    2.529042    11B2u    2.529042    12B3u    2.544481  
      12B2u    2.544481    10B2g    2.602515    10B3g    2.602515  
      18B1u    2.727704     5Au     2.727710    11B2g    2.740420  
      11B3g    2.740420    19B1u    2.846050    20Ag     2.950286  
      12B2g    3.035140    12B3g    3.035140    20B1u    4.085567  
      21Ag     4.918553    21B1u    5.734601  

    Final Occupation by Irrep:
             Ag   B1g   B2g   B3g    Au   B1u   B2u   B3u 
    DOCC [     5,    0,    2,    2,    0,    4,    2,    2 ]
    SOCC [     0,    0,    0,    0,    0,    0,    0,    0 ]

  @DF-UKS Final Energy:  -796.27844426135232

   => Energetics <=

    Nuclear Repulsion Energy =             67.7122783149029317
    One-Electron Energy =               -1248.9916937613579648
    Two-Electron Energy =                 424.5821219372168684
    DFT Exchange-Correlation Energy =     -39.7194294147028870
    Empirical Dispersion Energy =           0.0000000000000000
    VV10 Nonlocal Energy =                  0.1382786625887657
    Total Energy =                       -796.2784442613522060

  UHF NO Occupations:
  HONO-2 :    2B2u 2.0000000
  HONO-1 :    4B1u 2.0000000
  HONO-0 :    5 Ag 2.0000000
  LUNO+0 :    6 Ag 0.0000000
  LUNO+1 :    5B1u 0.0000000
  LUNO+2 :    7 Ag 0.0000000
  LUNO+3 :    6B1u 0.0000000


Computation Completed


Properties will be evaluated at   0.000000,   0.000000,   0.000000 [a0]

Properties computed using the SCF density matrix

  Nuclear Dipole Moment: [e a0]
     X:     0.0000      Y:     0.0000      Z:     0.0000

  Electronic Dipole Moment: [e a0]
     X:     0.0000      Y:     0.0000      Z:     0.0000

  Dipole Moment: [e a0]
     X:     0.0000      Y:     0.0000      Z:     0.0000     Total:     0.0000

  Dipole Moment: [D]
     X:     0.0000      Y:     0.0000      Z:     0.0000     Total:     0.0000


*** tstop() called on c1-9.compute.lan at Tue Feb  2 11:29:55 2021
Module time:
	user time   =      36.18 seconds =       0.60 minutes
	system time =       0.30 seconds =       0.01 minutes
	total time  =         36 seconds =       0.60 minutes
Total time:
	user time   =      72.34 seconds =       1.21 minutes
	system time =       0.95 seconds =       0.02 minutes
	total time  =         73 seconds =       1.22 minutes

  //>>>>>>>>>>>>>>>>>>>>>>>>>>>>>>>>>>>//
  //    Loading displacement 3 of 3    //
  //<<<<<<<<<<<<<<<<<<<<<<<<<<<<<<<<<<<//

*** tstart() called on c1-9.compute.lan
*** at Tue Feb  2 11:29:55 2021

   => Loading Basis Set <=

    Name: AUG-CC-PVTZ
    Role: ORBITAL
    Keyword: BASIS
    atoms 1-2 entry S          line   906 file /apps/gb/PSI4/1.4.0/share/psi4/basis/aug-cc-pvtz.gbs 


         ---------------------------------------------------------
                                   SCF
               by Justin Turney, Rob Parrish, Andy Simmonett
                          and Daniel G. A. Smith
                              UKS Reference
                        1 Threads,   9536 MiB Core
         ---------------------------------------------------------

  ==> Geometry <==

    Molecular point group: d2h
    Full point group: D_inf_h

    Geometry (in Angstrom), charge = -2, multiplicity = 1:

       Center              X                  Y                   Z               Mass       
    ------------   -----------------  -----------------  -----------------  -----------------
         S            0.000000000000     0.000000000000    -0.999669119820    31.972071174400
         S            0.000000000000     0.000000000000     0.999669119820    31.972071174400

  Running in d2h symmetry.

  Rotational constants: A = ************  B =      0.26381  C =      0.26381 [cm^-1]
  Rotational constants: A = ************  B =   7908.67773  C =   7908.67773 [MHz]
  Nuclear repulsion =   67.757102448034203

  Charge       = -2
  Multiplicity = 1
  Electrons    = 34
  Nalpha       = 17
  Nbeta        = 17

  ==> Algorithm <==

  SCF Algorithm Type is DF.
  DIIS enabled.
  MOM disabled.
  Fractional occupation disabled.
  Guess Type is SAD.
  Energy threshold   = 1.00e-08
  Density threshold  = 1.00e-08
  Integral threshold = 0.00e+00

  ==> Primary Basis <==

  Basis Set: AUG-CC-PVTZ
    Blend: AUG-CC-PVTZ
    Number of shells: 32
    Number of basis function: 100
    Number of Cartesian functions: 118
    Spherical Harmonics?: true
    Max angular momentum: 3

  ==> DFT Potential <==

   => Composite Functional: WB97M-V <= 

    wB97M-V Hyb-GGA Exchange-Correlation Functional

    N. Mardirossian and M. Head-Gordon, J. Chem. Phys. 144, 214110 (2016)

    Deriv               =              1
    GGA                 =           TRUE
    Meta                =           TRUE

    Exchange Hybrid     =           TRUE
    MP2 Hybrid          =          FALSE

   => Exchange-Correlation Functionals <=

    1.0000   wB97M-V exchange-correlation functional

   => Exact (HF) Exchange <=

    0.8500            HF,LR [omega = 0.3000]
    0.1500               HF 

   => VV10 Non-Local Parameters <=

    VV10 B              =     6.0000E+00
    VV10 C              =     1.0000E-02

   => Molecular Quadrature <=

    Radial Scheme          =       TREUTLER
    Pruning Scheme         =           NONE
    Nuclear Scheme         =       TREUTLER

    BS radius alpha        =              1
    Pruning alpha          =              1
    Radial Points          =             99
    Spherical Points       =            590
    Total Points           =         113368
    Total Blocks           =            984
    Max Points             =            255
    Max Functions          =            100
    Weights Tolerance      =       1.00E-15

   => Loading Basis Set <=

    Name: (AUG-CC-PVTZ AUX)
    Role: JKFIT
    Keyword: DF_BASIS_SCF
    atoms 1-2 entry S          line   730 file /apps/gb/PSI4/1.4.0/share/psi4/basis/aug-cc-pvtz-jkfit.gbs 

  ==> Pre-Iterations <==

   -------------------------------------------------------
    Irrep   Nso     Nmo     Nalpha   Nbeta   Ndocc  Nsocc
   -------------------------------------------------------
     Ag        21      21       0       0       0       0
     B1g        5       5       0       0       0       0
     B2g       12      12       0       0       0       0
     B3g       12      12       0       0       0       0
     Au         5       5       0       0       0       0
     B1u       21      21       0       0       0       0
     B2u       12      12       0       0       0       0
     B3u       12      12       0       0       0       0
   -------------------------------------------------------
    Total     100     100      17      17      17       0
   -------------------------------------------------------

  ==> Integral Setup <==

  ==> DiskDFJK: Density-Fitted J/K Matrices <==

    J tasked:                  Yes
    K tasked:                  Yes
    wK tasked:                 Yes
    Omega:               3.000E-01
    OpenMP threads:              1
    Integrals threads:           1
    Memory [MiB]:             6378
    Algorithm:                Core
    Integral Cache:           NONE
    Schwarz Cutoff:          1E-12
    Fitting Condition:       1E-10

   => Auxiliary Basis Set <=

  Basis Set: (AUG-CC-PVTZ AUX)
    Blend: AUG-CC-PVTZ-JKFIT
    Number of shells: 84
    Number of basis function: 292
    Number of Cartesian functions: 360
    Spherical Harmonics?: true
    Max angular momentum: 4

  Cached 100.0% of DFT collocation blocks in 0.756 [GiB].

  Minimum eigenvalue in the overlap matrix is 2.7148790077E-04.
  Using Symmetric Orthogonalization.

  SCF Guess: Superposition of Atomic Densities via on-the-fly atomic UHF.

  ==> Iterations <==

                           Total Energy        Delta E     RMS |[F,P]|

   @DF-UKS iter SAD:  -795.86999927646309   -7.95870e+02   0.00000e+00 
    Occupation by irrep:
             Ag   B1g   B2g   B3g    Au   B1u   B2u   B3u 
    DOCC [     5,    0,    2,    1,    0,    5,    2,    2 ]
    SOCC [     0,    0,    0,    0,    0,    0,    0,    0 ]

   @DF-UKS iter   1:  -796.03981370551162   -1.69814e-01   1.43420e-02 DIIS
    Occupation by irrep:
             Ag   B1g   B2g   B3g    Au   B1u   B2u   B3u 
    DOCC [     5,    0,    2,    2,    0,    4,    2,    2 ]
    SOCC [     0,    0,    0,    0,    0,    0,    0,    0 ]

   @DF-UKS iter   2:  -795.38612370226667    6.53690e-01   2.41146e-02 DIIS
   @DF-UKS iter   3:  -796.24464123128428   -8.58518e-01   4.39702e-03 DIIS
   @DF-UKS iter   4:  -796.27601715548110   -3.13759e-02   8.99801e-04 DIIS
   @DF-UKS iter   5:  -796.27805999719328   -2.04284e-03   3.48599e-04 DIIS
   @DF-UKS iter   6:  -796.27825858536198   -1.98588e-04   1.53824e-04 DIIS
   @DF-UKS iter   7:  -796.27830456487413   -4.59795e-05   6.23710e-05 DIIS
   @DF-UKS iter   8:  -796.27831349621511   -8.93134e-06   1.68015e-05 DIIS
   @DF-UKS iter   9:  -796.27831485319950   -1.35698e-06   2.63769e-06 DIIS
   @DF-UKS iter  10:  -796.27831493487531   -8.16758e-08   4.82741e-07 DIIS
   @DF-UKS iter  11:  -796.27831493700512   -2.12981e-09   1.05595e-07 DIIS
   @DF-UKS iter  12:  -796.27831493704207   -3.69482e-11   1.89608e-08 DIIS
   @DF-UKS iter  13:  -796.27831493704321   -1.13687e-12   1.47135e-09 DIIS
  Energy and wave function converged.


  ==> Post-Iterations <==

   @Spin Contamination Metric:   2.131628207E-14
   @S^2 Expected:                0.000000000E+00
   @S^2 Observed:                2.131628207E-14
   @S   Expected:                0.000000000E+00
   @S   Observed:                0.000000000E+00

    Orbital Energies [Eh]
    ---------------------

    Alpha Occupied:                                                       

       1B1u  -88.783290     1Ag   -88.783287     2Ag    -7.694690  
       2B1u   -7.694605     3Ag    -5.605870     3B1u   -5.605510  
       1B3u   -5.599185     1B2u   -5.599185     1B2g   -5.599166  
       1B3g   -5.599166     4Ag    -0.465833     4B1u   -0.274906  
       5Ag    -0.025918     2B3u   -0.000155     2B2u   -0.000155  
       2B3g    0.128613     2B2g    0.128613  

    Alpha Virtual:                                                        

       5B1u    0.264896     6Ag     0.330279     3B2u    0.352270  
       3B3u    0.352270     3B3g    0.363493     3B2g    0.363493  
       7Ag     0.411020     6B1u    0.437414     7B1u    0.527490  
       8Ag     0.558601     1B1g    0.558612     4B2u    0.610466  
       4B3u    0.610466     9Ag     0.619472     1Au     0.643746  
       8B1u    0.643756     4B3g    0.683972     4B2g    0.683972  
       9B1u    0.691179     5B2u    0.842689     5B3u    0.842689  
      10B1u    0.912718    10Ag     0.923966     5B3g    0.941486  
       5B2g    0.941486     6B3u    0.961946     6B2u    0.961946  
      11Ag     0.964090    12Ag     0.998679     2B1g    0.998686  
      13Ag     1.074189     2Au     1.088995    11B1u    1.089006  
       7B2u    1.111642     7B3u    1.111642     6B2g    1.154139  
       6B3g    1.154139     3B1g    1.183410    14Ag     1.183425  
       7B3g    1.250817     7B2g    1.250817    12B1u    1.255779  
       8B2u    1.405932     8B3u    1.405932    13B1u    1.438414  
       3Au     1.438430    14B1u    1.454079     8B2g    1.603870  
       8B3g    1.603870    15Ag     1.682690    15B1u    1.838426  
       4B1g    2.213426    16Ag     2.213430    16B1u    2.255373  
       9B3u    2.266456     9B2u    2.266456     4Au     2.284483  
      17B1u    2.284491    17Ag     2.374896     9B2g    2.396776  
       9B3g    2.396776    10B3u    2.447701    10B2u    2.447701  
       5B1g    2.488271    18Ag     2.488281    19Ag     2.497433  
      11B3u    2.529061    11B2u    2.529061    12B3u    2.544384  
      12B2u    2.544384    10B2g    2.602571    10B3g    2.602571  
      18B1u    2.728143     5Au     2.728150    11B2g    2.741141  
      11B3g    2.741141    19B1u    2.846717    20Ag     2.952486  
      12B2g    3.036057    12B3g    3.036057    20B1u    4.086155  
      21Ag     4.920578    21B1u    5.735275  

    Beta Occupied:                                                        

       1B1u  -88.783290     1Ag   -88.783287     2Ag    -7.694690  
       2B1u   -7.694605     3Ag    -5.605870     3B1u   -5.605510  
       1B3u   -5.599185     1B2u   -5.599185     1B2g   -5.599166  
       1B3g   -5.599166     4Ag    -0.465833     4B1u   -0.274906  
       5Ag    -0.025918     2B3u   -0.000155     2B2u   -0.000155  
       2B3g    0.128613     2B2g    0.128613  

    Beta Virtual:                                                         

       5B1u    0.264896     6Ag     0.330279     3B2u    0.352270  
       3B3u    0.352270     3B3g    0.363493     3B2g    0.363493  
       7Ag     0.411020     6B1u    0.437414     7B1u    0.527490  
       8Ag     0.558601     1B1g    0.558612     4B2u    0.610466  
       4B3u    0.610466     9Ag     0.619472     1Au     0.643746  
       8B1u    0.643756     4B3g    0.683972     4B2g    0.683972  
       9B1u    0.691179     5B2u    0.842689     5B3u    0.842689  
      10B1u    0.912718    10Ag     0.923966     5B3g    0.941486  
       5B2g    0.941486     6B3u    0.961946     6B2u    0.961946  
      11Ag     0.964090    12Ag     0.998679     2B1g    0.998686  
      13Ag     1.074189     2Au     1.088995    11B1u    1.089006  
       7B2u    1.111642     7B3u    1.111642     6B2g    1.154139  
       6B3g    1.154139     3B1g    1.183410    14Ag     1.183425  
       7B3g    1.250817     7B2g    1.250817    12B1u    1.255779  
       8B2u    1.405932     8B3u    1.405932    13B1u    1.438414  
       3Au     1.438430    14B1u    1.454079     8B2g    1.603870  
       8B3g    1.603870    15Ag     1.682690    15B1u    1.838426  
       4B1g    2.213426    16Ag     2.213430    16B1u    2.255373  
       9B3u    2.266456     9B2u    2.266456     4Au     2.284483  
      17B1u    2.284491    17Ag     2.374896     9B2g    2.396776  
       9B3g    2.396776    10B3u    2.447701    10B2u    2.447701  
       5B1g    2.488271    18Ag     2.488281    19Ag     2.497433  
      11B3u    2.529061    11B2u    2.529061    12B3u    2.544384  
      12B2u    2.544384    10B2g    2.602571    10B3g    2.602571  
      18B1u    2.728143     5Au     2.728150    11B2g    2.741141  
      11B3g    2.741141    19B1u    2.846717    20Ag     2.952486  
      12B2g    3.036057    12B3g    3.036057    20B1u    4.086155  
      21Ag     4.920578    21B1u    5.735275  

    Final Occupation by Irrep:
             Ag   B1g   B2g   B3g    Au   B1u   B2u   B3u 
    DOCC [     5,    0,    2,    2,    0,    4,    2,    2 ]
    SOCC [     0,    0,    0,    0,    0,    0,    0,    0 ]

  @DF-UKS Final Energy:  -796.27831493704321

   => Energetics <=

    Nuclear Repulsion Energy =             67.7571024480342032
    One-Electron Energy =               -1249.0801490612473117
    Two-Electron Energy =                 424.6262134837077156
    DFT Exchange-Correlation Energy =     -39.7197582615237792
    Empirical Dispersion Energy =           0.0000000000000000
    VV10 Nonlocal Energy =                  0.1382764539860426
    Total Energy =                       -796.2783149370432056

  UHF NO Occupations:
  HONO-2 :    2B2g 2.0000000
  HONO-1 :    2B3g 2.0000000
  HONO-0 :    5 Ag 2.0000000
  LUNO+0 :    5B1u 0.0000000
  LUNO+1 :    3B3u 0.0000000
  LUNO+2 :    6 Ag 0.0000000
  LUNO+3 :    3B2u 0.0000000


Computation Completed


Properties will be evaluated at   0.000000,   0.000000,   0.000000 [a0]

Properties computed using the SCF density matrix

  Nuclear Dipole Moment: [e a0]
     X:     0.0000      Y:     0.0000      Z:     0.0000

  Electronic Dipole Moment: [e a0]
     X:     0.0000      Y:     0.0000      Z:     0.0000

  Dipole Moment: [e a0]
     X:     0.0000      Y:     0.0000      Z:     0.0000     Total:     0.0000

  Dipole Moment: [D]
     X:     0.0000      Y:     0.0000      Z:     0.0000     Total:     0.0000


*** tstop() called on c1-9.compute.lan at Tue Feb  2 11:30:31 2021
Module time:
	user time   =      35.72 seconds =       0.60 minutes
	system time =       0.23 seconds =       0.00 minutes
	total time  =         36 seconds =       0.60 minutes
Total time:
	user time   =     108.06 seconds =       1.80 minutes
	system time =       1.18 seconds =       0.02 minutes
	total time  =        109 seconds =       1.82 minutes

         ----------------------------------------------------------
                                   FINDIF
                     R. A. King and Jonathon Misiewicz
         ---------------------------------------------------------

  Computing gradient from energies.
    Using 3-point formula.
    Energy without displacement: -796.2783797796
    Check energies below for precision!
    Forces are for mass-weighted, symmetry-adapted cartesians (in au).

     Coord      Energy(-1)        Energy(+1)            Force
        0   -796.2784442614   -796.2783149370      0.0129324309


-------------------------------------------------------------
  ## New Matrix (Symmetry 0) ##
  Irrep: 1 Size: 2 x 3

                 1                   2                   3

    1     0.00000000000000     0.00000000000000     0.05170714449244
    2     0.00000000000000     0.00000000000000    -0.05170714449244




			-----------------------------------------
			 OPTKING 2.0: for geometry optimizations 
			  - R.A. King,  Bethel University        
			-----------------------------------------

	Internal coordinates to be generated automatically.
	Detected frag 1 with atoms:  1 2
	---Fragment 1 Bond Connectivity---
	 1 : 2
	 2 : 1

	---Fragment 1 Geometry and Gradient---
	 S           0.0000000000        0.0000000000       -1.8897261255
	 S           0.0000000000        0.0000000000        1.8897261255
	             0.0000000000        0.0000000000        0.0517071445
	             0.0000000000        0.0000000000       -0.0517071445

	Previous optimization step data not found.  Starting new optimization.

	---Fragment 1 Intrafragment Coordinates---
	 - Coordinate -           - BOHR/RAD -       - ANG/DEG -
	 R(1,2)           =         3.779452	       2.000000

	Current energy   :      -796.2783797796

	Generating empirical Hessian (Schlegel '84) for each fragment.
	Taking RFO optimization step.
	Going to follow RFO solution 1.
	Using RFO vector 1.
	Norm of target step-size    0.14629
	Projected energy change by RFO approximation:         0.0030700215

	Back-transformation to cartesian coordinates...
	Successfully converged to displaced geometry.

	--- Internal Coordinate Step in ANG or DEG, aJ/ANG or AJ/DEG ---
	 ---------------------------------------------------------------------------
	   Coordinate                Previous        Force       Change         New 
	   ----------                --------       ------       ------       ------
	    1 R(1,2)          =      2.000000     0.426001     0.077411     2.077411
	 ---------------------------------------------------------------------------
	Successfully symmetrized geometry.

  ==> Convergence Check <==

  Measures of convergence in internal coordinates in au.
  Criteria marked as inactive (o), active & met (*), and active & unmet ( ).
  --------------------------------------------------------------------------------------------- ~
   Step     Total Energy     Delta E     MAX Force     RMS Force      MAX Disp      RMS Disp    ~
  --------------------------------------------------------------------------------------------- ~
    Convergence Criteria             o    2.00e-06 *    1.00e-06 *    6.00e-06 *    4.00e-06 *  ~
  --------------------------------------------------------------------------------------------- ~
      1    -796.27837978   -7.96e+02 o    5.17e-02      5.17e-02      1.46e-01      1.46e-01    ~
  ---------------------------------------------------------------------------------------------

	Writing optimization data to binary file.
	Structure for next step:
	Cartesian Geometry (in Angstrom)
	    S     0.0000000000   0.0000000000  -1.0387054722
	    S     0.0000000000   0.0000000000   1.0387054722
			--------------------------
			 OPTKING Finished Execution 
			--------------------------

    Structure for next step:
    Molecular point group: d2h
    Full point group: D_inf_h

    Geometry (in Angstrom), charge = -2, multiplicity = 1:

    S       
    S             1          r1

    r1        =    2.0774109526

gradient() will perform gradient computation by finite difference of analytic energies.

         ----------------------------------------------------------
                                   FINDIF
                     R. A. King and Jonathon Misiewicz
         ---------------------------------------------------------

  Using finite-differences of energies to determine gradients.
    Generating geometries for use with 3-point formula.
    Displacement size will be 5.00e-03.
    Number of atoms is 2.
    Number of symmetric SALCs is 1.
    Translations projected? 1. Rotations projected? 1.
    Number of geometries (including reference) is 3.

  //>>>>>>>>>>>>>>>>>>>>>>>>>>>>>>>>>>>//
  //    Loading displacement 1 of 3    //
  //<<<<<<<<<<<<<<<<<<<<<<<<<<<<<<<<<<<//

*** tstart() called on c1-9.compute.lan
*** at Tue Feb  2 11:30:31 2021

   => Loading Basis Set <=

    Name: AUG-CC-PVTZ
    Role: ORBITAL
    Keyword: BASIS
    atoms 1-2 entry S          line   906 file /apps/gb/PSI4/1.4.0/share/psi4/basis/aug-cc-pvtz.gbs 


         ---------------------------------------------------------
                                   SCF
               by Justin Turney, Rob Parrish, Andy Simmonett
                          and Daniel G. A. Smith
                              UKS Reference
                        1 Threads,   9536 MiB Core
         ---------------------------------------------------------

  ==> Geometry <==

    Molecular point group: d2h
    Full point group: D_inf_h

    Geometry (in Angstrom), charge = -2, multiplicity = 1:

       Center              X                  Y                   Z               Mass       
    ------------   -----------------  -----------------  -----------------  -----------------
         S            0.000000000000     0.000000000000    -1.038705476299    31.972071174400
         S            0.000000000000     0.000000000000     1.038705476299    31.972071174400

  Running in d2h symmetry.

  Rotational constants: A = ************  B =      0.24435  C =      0.24435 [cm^-1]
  Rotational constants: A = ************  B =   7325.40415  C =   7325.40415 [MHz]
  Nuclear repulsion =   65.210672814675519

  Charge       = -2
  Multiplicity = 1
  Electrons    = 34
  Nalpha       = 17
  Nbeta        = 17

  ==> Algorithm <==

  SCF Algorithm Type is DF.
  DIIS enabled.
  MOM disabled.
  Fractional occupation disabled.
  Guess Type is READ.
  Energy threshold   = 1.00e-08
  Density threshold  = 1.00e-08
  Integral threshold = 0.00e+00

  ==> Primary Basis <==

  Basis Set: AUG-CC-PVTZ
    Blend: AUG-CC-PVTZ
    Number of shells: 32
    Number of basis function: 100
    Number of Cartesian functions: 118
    Spherical Harmonics?: true
    Max angular momentum: 3

  ==> DFT Potential <==

   => Composite Functional: WB97M-V <= 

    wB97M-V Hyb-GGA Exchange-Correlation Functional

    N. Mardirossian and M. Head-Gordon, J. Chem. Phys. 144, 214110 (2016)

    Deriv               =              1
    GGA                 =           TRUE
    Meta                =           TRUE

    Exchange Hybrid     =           TRUE
    MP2 Hybrid          =          FALSE

   => Exchange-Correlation Functionals <=

    1.0000   wB97M-V exchange-correlation functional

   => Exact (HF) Exchange <=

    0.8500            HF,LR [omega = 0.3000]
    0.1500               HF 

   => VV10 Non-Local Parameters <=

    VV10 B              =     6.0000E+00
    VV10 C              =     1.0000E-02

   => Molecular Quadrature <=

    Radial Scheme          =       TREUTLER
    Pruning Scheme         =           NONE
    Nuclear Scheme         =       TREUTLER

    BS radius alpha        =              1
    Pruning alpha          =              1
    Radial Points          =             99
    Spherical Points       =            590
    Total Points           =         113402
    Total Blocks           =            980
    Max Points             =            256
    Max Functions          =            100
    Weights Tolerance      =       1.00E-15

   => Loading Basis Set <=

    Name: (AUG-CC-PVTZ AUX)
    Role: JKFIT
    Keyword: DF_BASIS_SCF
    atoms 1-2 entry S          line   730 file /apps/gb/PSI4/1.4.0/share/psi4/basis/aug-cc-pvtz-jkfit.gbs 

   => Loading Basis Set <=

    Name: AUG-CC-PVTZ
    Role: ORBITAL
    Keyword: BASIS
    atoms 1-2 entry S          line   906 file /apps/gb/PSI4/1.4.0/share/psi4/basis/aug-cc-pvtz.gbs 

  Reading orbitals from file 180, no projection.

  ==> Pre-Iterations <==

   -------------------------------------------------------
    Irrep   Nso     Nmo     Nalpha   Nbeta   Ndocc  Nsocc
   -------------------------------------------------------
     Ag        21      21       0       0       0       0
     B1g        5       5       0       0       0       0
     B2g       12      12       0       0       0       0
     B3g       12      12       0       0       0       0
     Au         5       5       0       0       0       0
     B1u       21      21       0       0       0       0
     B2u       12      12       0       0       0       0
     B3u       12      12       0       0       0       0
   -------------------------------------------------------
    Total     100     100      17      17      17       0
   -------------------------------------------------------

  ==> Integral Setup <==

  ==> DiskDFJK: Density-Fitted J/K Matrices <==

    J tasked:                  Yes
    K tasked:                  Yes
    wK tasked:                 Yes
    Omega:               3.000E-01
    OpenMP threads:              1
    Integrals threads:           1
    Memory [MiB]:             6379
    Algorithm:                Core
    Integral Cache:           NONE
    Schwarz Cutoff:          1E-12
    Fitting Condition:       1E-10

   => Auxiliary Basis Set <=

  Basis Set: (AUG-CC-PVTZ AUX)
    Blend: AUG-CC-PVTZ-JKFIT
    Number of shells: 84
    Number of basis function: 292
    Number of Cartesian functions: 360
    Spherical Harmonics?: true
    Max angular momentum: 4

  Cached 100.0% of DFT collocation blocks in 0.755 [GiB].

  Minimum eigenvalue in the overlap matrix is 3.2440467121E-04.
  Using Symmetric Orthogonalization.

  SCF Guess: Orbitals guess was supplied from a previous computation.

  ==> Iterations <==

                           Total Energy        Delta E     RMS |[F,P]|

   @DF-UKS iter   0:  -796.23999148020607   -7.96240e+02   4.11127e-03 
   @DF-UKS iter   1:  -796.28329381485344   -4.33023e-02   5.83552e-04 DIIS
   @DF-UKS iter   2:  -796.28358268549562   -2.88871e-04   3.71605e-04 DIIS
   @DF-UKS iter   3:  -796.28370327242044   -1.20587e-04   8.39525e-05 DIIS
   @DF-UKS iter   4:  -796.28371224825605   -8.97584e-06   2.51122e-05 DIIS
   @DF-UKS iter   5:  -796.28371497609658   -2.72784e-06   4.28631e-06 DIIS
   @DF-UKS iter   6:  -796.28371510580871   -1.29712e-07   1.48920e-06 DIIS
   @DF-UKS iter   7:  -796.28371511567070   -9.86199e-09   2.21483e-07 DIIS
   @DF-UKS iter   8:  -796.28371511598823   -3.17527e-10   4.25097e-08 DIIS
   @DF-UKS iter   9:  -796.28371511599596   -7.73070e-12   6.99430e-09 DIIS
  Energy and wave function converged.


  ==> Post-Iterations <==

   @Spin Contamination Metric:   7.105427358E-15
   @S^2 Expected:                0.000000000E+00
   @S^2 Observed:                7.105427358E-15
   @S   Expected:                0.000000000E+00
   @S   Observed:                0.000000000E+00

    Orbital Energies [Eh]
    ---------------------

    Alpha Occupied:                                                       

       1B1u  -88.785291     1Ag   -88.785288     2Ag    -7.695496  
       2B1u   -7.695442     3Ag    -5.606904     3B1u   -5.606692  
       1B2u   -5.599962     1B3u   -5.599962     1B3g   -5.599954  
       1B2g   -5.599954     4Ag    -0.447588     4B1u   -0.281263  
       5Ag    -0.019040     2B2u    0.008672     2B3u    0.008672  
       2B3g    0.122560     2B2g    0.122560  

    Alpha Virtual:                                                        

       5B1u    0.264911     6Ag     0.331287     3B2u    0.354031  
       3B3u    0.354031     3B3g    0.363268     3B2g    0.363268  
       7Ag     0.412862     6B1u    0.431328     7B1u    0.517003  
       8Ag     0.559583     1B1g    0.559591     4B3u    0.608478  
       4B2u    0.608478     9Ag     0.625212     1Au     0.641881  
       8B1u    0.641887     9B1u    0.681490     4B3g    0.685198  
       4B2g    0.685198     5B2u    0.846201     5B3u    0.846201  
      10B1u    0.916526    10Ag     0.933026     5B3g    0.940891  
       5B2g    0.940891     6B3u    0.963793     6B2u    0.963793  
      11Ag     0.971525    12Ag     1.005861     2B1g    1.005868  
      13Ag     1.059521     2Au     1.086492    11B1u    1.086501  
       7B3u    1.115010     7B2u    1.115010     6B3g    1.143648  
       6B2g    1.143648     3B1g    1.173615    14Ag     1.173627  
      12B1u    1.233119     7B2g    1.245448     7B3g    1.245448  
       8B3u    1.392373     8B2u    1.392373    13B1u    1.422684  
      14B1u    1.426758     3Au     1.426778     8B3g    1.593207  
       8B2g    1.593207    15Ag     1.653934    15B1u    1.838838  
       4B1g    2.212625    16Ag     2.212629    16B1u    2.273111  
       9B3u    2.274295     9B2u    2.274295     4Au     2.280814  
      17B1u    2.280824    17Ag     2.397746     9B2g    2.407451  
       9B3g    2.407451    10B2u    2.440721    10B3u    2.440721  
       5B1g    2.511859    18Ag     2.511865    19Ag     2.517454  
      11B2u    2.528708    11B3u    2.528708    12B3u    2.548980  
      12B2u    2.548980    10B2g    2.599332    10B3g    2.599332  
      11B3g    2.701051    11B2g    2.701051    18B1u    2.703562  
       5Au     2.703574    19B1u    2.809921    20Ag     2.828191  
      12B2g    2.981981    12B3g    2.981981    20B1u    4.023428  
      21Ag     4.810649    21B1u    5.714035  

    Beta Occupied:                                                        

       1B1u  -88.785291     1Ag   -88.785288     2Ag    -7.695496  
       2B1u   -7.695442     3Ag    -5.606904     3B1u   -5.606692  
       1B2u   -5.599962     1B3u   -5.599962     1B3g   -5.599954  
       1B2g   -5.599954     4Ag    -0.447588     4B1u   -0.281263  
       5Ag    -0.019040     2B2u    0.008672     2B3u    0.008672  
       2B3g    0.122560     2B2g    0.122560  

    Beta Virtual:                                                         

       5B1u    0.264911     6Ag     0.331287     3B2u    0.354031  
       3B3u    0.354031     3B3g    0.363268     3B2g    0.363268  
       7Ag     0.412862     6B1u    0.431328     7B1u    0.517003  
       8Ag     0.559583     1B1g    0.559591     4B3u    0.608478  
       4B2u    0.608478     9Ag     0.625212     1Au     0.641881  
       8B1u    0.641887     9B1u    0.681490     4B3g    0.685198  
       4B2g    0.685198     5B2u    0.846201     5B3u    0.846201  
      10B1u    0.916526    10Ag     0.933026     5B3g    0.940891  
       5B2g    0.940891     6B3u    0.963793     6B2u    0.963793  
      11Ag     0.971525    12Ag     1.005861     2B1g    1.005868  
      13Ag     1.059521     2Au     1.086492    11B1u    1.086501  
       7B3u    1.115010     7B2u    1.115010     6B3g    1.143648  
       6B2g    1.143648     3B1g    1.173615    14Ag     1.173627  
      12B1u    1.233119     7B2g    1.245448     7B3g    1.245448  
       8B3u    1.392373     8B2u    1.392373    13B1u    1.422684  
      14B1u    1.426758     3Au     1.426778     8B3g    1.593207  
       8B2g    1.593207    15Ag     1.653934    15B1u    1.838838  
       4B1g    2.212625    16Ag     2.212629    16B1u    2.273111  
       9B3u    2.274295     9B2u    2.274295     4Au     2.280814  
      17B1u    2.280824    17Ag     2.397746     9B2g    2.407451  
       9B3g    2.407451    10B2u    2.440721    10B3u    2.440721  
       5B1g    2.511859    18Ag     2.511865    19Ag     2.517454  
      11B2u    2.528708    11B3u    2.528708    12B3u    2.548980  
      12B2u    2.548980    10B2g    2.599332    10B3g    2.599332  
      11B3g    2.701051    11B2g    2.701051    18B1u    2.703562  
       5Au     2.703574    19B1u    2.809921    20Ag     2.828191  
      12B2g    2.981981    12B3g    2.981981    20B1u    4.023428  
      21Ag     4.810649    21B1u    5.714035  

    Final Occupation by Irrep:
             Ag   B1g   B2g   B3g    Au   B1u   B2u   B3u 
    DOCC [     5,    0,    2,    2,    0,    4,    2,    2 ]
    SOCC [     0,    0,    0,    0,    0,    0,    0,    0 ]

  @DF-UKS Final Energy:  -796.28371511599596

   => Energetics <=

    Nuclear Repulsion Energy =             65.2106728146755188
    One-Electron Energy =               -1244.0355507167982978
    Two-Electron Energy =                 422.1043289583832347
    DFT Exchange-Correlation Energy =     -39.7015741336691903
    Empirical Dispersion Energy =           0.0000000000000000
    VV10 Nonlocal Energy =                  0.1384079614129139
    Total Energy =                       -796.2837151159958466

  UHF NO Occupations:
  HONO-2 :    2B2g 2.0000000
  HONO-1 :    5 Ag 2.0000000
  HONO-0 :    4B1u 2.0000000
  LUNO+0 :    6 Ag 0.0000000
  LUNO+1 :    5B1u 0.0000000
  LUNO+2 :    6B1u 0.0000000
  LUNO+3 :    7 Ag 0.0000000


Computation Completed


Properties will be evaluated at   0.000000,   0.000000,   0.000000 [a0]

Properties computed using the SCF density matrix

  Nuclear Dipole Moment: [e a0]
     X:     0.0000      Y:     0.0000      Z:     0.0000

  Electronic Dipole Moment: [e a0]
     X:     0.0000      Y:     0.0000      Z:     0.0000

  Dipole Moment: [e a0]
     X:     0.0000      Y:     0.0000      Z:     0.0000     Total:     0.0000

  Dipole Moment: [D]
     X:     0.0000      Y:     0.0000      Z:     0.0000     Total:     0.0000


*** tstop() called on c1-9.compute.lan at Tue Feb  2 11:30:57 2021
Module time:
	user time   =      26.09 seconds =       0.43 minutes
	system time =       0.18 seconds =       0.00 minutes
	total time  =         26 seconds =       0.43 minutes
Total time:
	user time   =     134.17 seconds =       2.24 minutes
	system time =       1.36 seconds =       0.02 minutes
	total time  =        135 seconds =       2.25 minutes

  //>>>>>>>>>>>>>>>>>>>>>>>>>>>>>>>>>>>//
  //    Loading displacement 2 of 3    //
  //<<<<<<<<<<<<<<<<<<<<<<<<<<<<<<<<<<<//

*** tstart() called on c1-9.compute.lan
*** at Tue Feb  2 11:30:57 2021

   => Loading Basis Set <=

    Name: AUG-CC-PVTZ
    Role: ORBITAL
    Keyword: BASIS
    atoms 1-2 entry S          line   906 file /apps/gb/PSI4/1.4.0/share/psi4/basis/aug-cc-pvtz.gbs 


         ---------------------------------------------------------
                                   SCF
               by Justin Turney, Rob Parrish, Andy Simmonett
                          and Daniel G. A. Smith
                              UKS Reference
                        1 Threads,   9536 MiB Core
         ---------------------------------------------------------

  ==> Geometry <==

    Molecular point group: d2h
    Full point group: D_inf_h

    Geometry (in Angstrom), charge = -2, multiplicity = 1:

       Center              X                  Y                   Z               Mass       
    ------------   -----------------  -----------------  -----------------  -----------------
         S            0.000000000000     0.000000000000    -1.039036356480    31.972071174400
         S            0.000000000000     0.000000000000     1.039036356480    31.972071174400

  Running in d2h symmetry.

  Rotational constants: A = ************  B =      0.24419  C =      0.24419 [cm^-1]
  Rotational constants: A = ************  B =   7320.73935  C =   7320.73935 [MHz]
  Nuclear repulsion =   65.189906535378825

  Charge       = -2
  Multiplicity = 1
  Electrons    = 34
  Nalpha       = 17
  Nbeta        = 17

  ==> Algorithm <==

  SCF Algorithm Type is DF.
  DIIS enabled.
  MOM disabled.
  Fractional occupation disabled.
  Guess Type is READ.
  Energy threshold   = 1.00e-08
  Density threshold  = 1.00e-08
  Integral threshold = 0.00e+00

  ==> Primary Basis <==

  Basis Set: AUG-CC-PVTZ
    Blend: AUG-CC-PVTZ
    Number of shells: 32
    Number of basis function: 100
    Number of Cartesian functions: 118
    Spherical Harmonics?: true
    Max angular momentum: 3

  ==> DFT Potential <==

   => Composite Functional: WB97M-V <= 

    wB97M-V Hyb-GGA Exchange-Correlation Functional

    N. Mardirossian and M. Head-Gordon, J. Chem. Phys. 144, 214110 (2016)

    Deriv               =              1
    GGA                 =           TRUE
    Meta                =           TRUE

    Exchange Hybrid     =           TRUE
    MP2 Hybrid          =          FALSE

   => Exchange-Correlation Functionals <=

    1.0000   wB97M-V exchange-correlation functional

   => Exact (HF) Exchange <=

    0.8500            HF,LR [omega = 0.3000]
    0.1500               HF 

   => VV10 Non-Local Parameters <=

    VV10 B              =     6.0000E+00
    VV10 C              =     1.0000E-02

   => Molecular Quadrature <=

    Radial Scheme          =       TREUTLER
    Pruning Scheme         =           NONE
    Nuclear Scheme         =       TREUTLER

    BS radius alpha        =              1
    Pruning alpha          =              1
    Radial Points          =             99
    Spherical Points       =            590
    Total Points           =         113386
    Total Blocks           =            978
    Max Points             =            256
    Max Functions          =            100
    Weights Tolerance      =       1.00E-15

   => Loading Basis Set <=

    Name: (AUG-CC-PVTZ AUX)
    Role: JKFIT
    Keyword: DF_BASIS_SCF
    atoms 1-2 entry S          line   730 file /apps/gb/PSI4/1.4.0/share/psi4/basis/aug-cc-pvtz-jkfit.gbs 

   => Loading Basis Set <=

    Name: AUG-CC-PVTZ
    Role: ORBITAL
    Keyword: BASIS
    atoms 1-2 entry S          line   906 file /apps/gb/PSI4/1.4.0/share/psi4/basis/aug-cc-pvtz.gbs 

  Reading orbitals from file 180, no projection.

  ==> Pre-Iterations <==

   -------------------------------------------------------
    Irrep   Nso     Nmo     Nalpha   Nbeta   Ndocc  Nsocc
   -------------------------------------------------------
     Ag        21      21       0       0       0       0
     B1g        5       5       0       0       0       0
     B2g       12      12       0       0       0       0
     B3g       12      12       0       0       0       0
     Au         5       5       0       0       0       0
     B1u       21      21       0       0       0       0
     B2u       12      12       0       0       0       0
     B3u       12      12       0       0       0       0
   -------------------------------------------------------
    Total     100     100      17      17      17       0
   -------------------------------------------------------

  ==> Integral Setup <==

  ==> DiskDFJK: Density-Fitted J/K Matrices <==

    J tasked:                  Yes
    K tasked:                  Yes
    wK tasked:                 Yes
    Omega:               3.000E-01
    OpenMP threads:              1
    Integrals threads:           1
    Memory [MiB]:             6379
    Algorithm:                Core
    Integral Cache:           NONE
    Schwarz Cutoff:          1E-12
    Fitting Condition:       1E-10

   => Auxiliary Basis Set <=

  Basis Set: (AUG-CC-PVTZ AUX)
    Blend: AUG-CC-PVTZ-JKFIT
    Number of shells: 84
    Number of basis function: 292
    Number of Cartesian functions: 360
    Spherical Harmonics?: true
    Max angular momentum: 4

  Cached 100.0% of DFT collocation blocks in 0.755 [GiB].

  Minimum eigenvalue in the overlap matrix is 3.2488964698E-04.
  Using Symmetric Orthogonalization.

  SCF Guess: Orbitals guess was supplied from a previous computation.

  ==> Iterations <==

                           Total Energy        Delta E     RMS |[F,P]|

   @DF-UKS iter   0:  -796.28338074453904   -7.96283e+02   3.33558e-05 
   @DF-UKS iter   1:  -796.28374343058908   -3.62686e-04   4.86420e-06 DIIS
   @DF-UKS iter   2:  -796.28374344843564   -1.78466e-08   3.29749e-06 DIIS
   @DF-UKS iter   3:  -796.28374345806765   -9.63200e-09   7.07212e-07 DIIS
   @DF-UKS iter   4:  -796.28374345867178   -6.04132e-10   1.88601e-07 DIIS
   @DF-UKS iter   5:  -796.28374345884095   -1.69166e-10   3.24224e-08 DIIS
   @DF-UKS iter   6:  -796.28374345884811   -7.16227e-12   1.12746e-08 DIIS
   @DF-UKS iter   7:  -796.28374345884868   -5.68434e-13   1.69854e-09 DIIS
  Energy and wave function converged.


  ==> Post-Iterations <==

   @Spin Contamination Metric:  -1.065814104E-14
   @S^2 Expected:                0.000000000E+00
   @S^2 Observed:               -1.065814104E-14
   @S   Expected:                0.000000000E+00
   @S   Observed:                0.000000000E+00

    Orbital Energies [Eh]
    ---------------------

    Alpha Occupied:                                                       

       1B1u  -88.785310     1Ag   -88.785307     2Ag    -7.695507  
       2B1u   -7.695453     3Ag    -5.606917     3B1u   -5.606705  
       1B3u   -5.599972     1B2u   -5.599972     1B2g   -5.599964  
       1B3g   -5.599964     4Ag    -0.447447     4B1u   -0.281318  
       5Ag    -0.018984     2B2u    0.008739     2B3u    0.008739  
       2B2g    0.122508     2B3g    0.122508  

    Alpha Virtual:                                                        

       5B1u    0.264910     6Ag     0.331294     3B2u    0.354044  
       3B3u    0.354044     3B2g    0.363265     3B3g    0.363265  
       7Ag     0.412875     6B1u    0.431267     7B1u    0.516921  
       8Ag     0.559589     1B1g    0.559596     4B2u    0.608459  
       4B3u    0.608459     9Ag     0.625257     1Au     0.641864  
       8B1u    0.641869     9B1u    0.681411     4B2g    0.685206  
       4B3g    0.685206     5B3u    0.846223     5B2u    0.846223  
      10B1u    0.916557    10Ag     0.933093     5B2g    0.940882  
       5B3g    0.940882     6B3u    0.963810     6B2u    0.963810  
      11Ag     0.971590    12Ag     1.005917     2B1g    1.005924  
      13Ag     1.059400     2Au     1.086468    11B1u    1.086478  
       7B2u    1.115036     7B3u    1.115036     6B2g    1.143562  
       6B3g    1.143562     3B1g    1.173531    14Ag     1.173542  
      12B1u    1.232930     7B3g    1.245400     7B2g    1.245400  
       8B2u    1.392254     8B3u    1.392254    13B1u    1.422433  
      14B1u    1.426657     3Au     1.426677     8B2g    1.593120  
       8B3g    1.593120    15Ag     1.653689    15B1u    1.838811  
       4B1g    2.212616    16Ag     2.212620    16B1u    2.273286  
       9B3u    2.274286     9B2u    2.274286     4Au     2.280781  
      17B1u    2.280791    17Ag     2.397949     9B3g    2.407526  
       9B2g    2.407526    10B2u    2.440763    10B3u    2.440763  
       5B1g    2.512043    18Ag     2.512049    19Ag     2.517608  
      11B2u    2.528708    11B3u    2.528708    12B2u    2.549009  
      12B3u    2.549009    10B3g    2.599305    10B2g    2.599305  
      11B3g    2.700733    11B2g    2.700733    18B1u    2.703366  
       5Au     2.703378    19B1u    2.809630    20Ag     2.827189  
      12B2g    2.981525    12B3g    2.981525    20B1u    4.022682  
      21Ag     4.809797    21B1u    5.713974  

    Beta Occupied:                                                        

       1B1u  -88.785310     1Ag   -88.785307     2Ag    -7.695507  
       2B1u   -7.695453     3Ag    -5.606917     3B1u   -5.606705  
       1B3u   -5.599972     1B2u   -5.599972     1B2g   -5.599964  
       1B3g   -5.599964     4Ag    -0.447447     4B1u   -0.281318  
       5Ag    -0.018984     2B2u    0.008739     2B3u    0.008739  
       2B2g    0.122508     2B3g    0.122508  

    Beta Virtual:                                                         

       5B1u    0.264910     6Ag     0.331294     3B2u    0.354044  
       3B3u    0.354044     3B2g    0.363265     3B3g    0.363265  
       7Ag     0.412875     6B1u    0.431267     7B1u    0.516921  
       8Ag     0.559589     1B1g    0.559596     4B2u    0.608459  
       4B3u    0.608459     9Ag     0.625257     1Au     0.641864  
       8B1u    0.641869     9B1u    0.681411     4B2g    0.685206  
       4B3g    0.685206     5B3u    0.846223     5B2u    0.846223  
      10B1u    0.916557    10Ag     0.933093     5B2g    0.940882  
       5B3g    0.940882     6B3u    0.963810     6B2u    0.963810  
      11Ag     0.971590    12Ag     1.005917     2B1g    1.005924  
      13Ag     1.059400     2Au     1.086468    11B1u    1.086478  
       7B2u    1.115036     7B3u    1.115036     6B2g    1.143562  
       6B3g    1.143562     3B1g    1.173531    14Ag     1.173542  
      12B1u    1.232930     7B3g    1.245400     7B2g    1.245400  
       8B2u    1.392254     8B3u    1.392254    13B1u    1.422433  
      14B1u    1.426657     3Au     1.426677     8B2g    1.593120  
       8B3g    1.593120    15Ag     1.653689    15B1u    1.838811  
       4B1g    2.212616    16Ag     2.212620    16B1u    2.273286  
       9B3u    2.274286     9B2u    2.274286     4Au     2.280781  
      17B1u    2.280791    17Ag     2.397949     9B3g    2.407526  
       9B2g    2.407526    10B2u    2.440763    10B3u    2.440763  
       5B1g    2.512043    18Ag     2.512049    19Ag     2.517608  
      11B2u    2.528708    11B3u    2.528708    12B2u    2.549009  
      12B3u    2.549009    10B3g    2.599305    10B2g    2.599305  
      11B3g    2.700733    11B2g    2.700733    18B1u    2.703366  
       5Au     2.703378    19B1u    2.809630    20Ag     2.827189  
      12B2g    2.981525    12B3g    2.981525    20B1u    4.022682  
      21Ag     4.809797    21B1u    5.713974  

    Final Occupation by Irrep:
             Ag   B1g   B2g   B3g    Au   B1u   B2u   B3u 
    DOCC [     5,    0,    2,    2,    0,    4,    2,    2 ]
    SOCC [     0,    0,    0,    0,    0,    0,    0,    0 ]

  @DF-UKS Final Energy:  -796.28374345884868

   => Energetics <=

    Nuclear Repulsion Energy =             65.1899065353788245
    One-Electron Energy =               -1243.9942498288742172
    Two-Electron Energy =                 422.0836207487559477
    DFT Exchange-Correlation Energy =     -39.7014300001545450
    Empirical Dispersion Energy =           0.0000000000000000
    VV10 Nonlocal Energy =                  0.1384090860452404
    Total Energy =                       -796.2837434588486758

  UHF NO Occupations:
  HONO-2 :    4B1u 2.0000000
  HONO-1 :    2B3g 2.0000000
  HONO-0 :    2B2u 2.0000000
  LUNO+0 :    6 Ag 0.0000000
  LUNO+1 :    7 Ag 0.0000000
  LUNO+2 :    5B1u 0.0000000
  LUNO+3 :    6B1u 0.0000000


Computation Completed


Properties will be evaluated at   0.000000,   0.000000,   0.000000 [a0]

Properties computed using the SCF density matrix

  Nuclear Dipole Moment: [e a0]
     X:     0.0000      Y:     0.0000      Z:     0.0000

  Electronic Dipole Moment: [e a0]
     X:     0.0000      Y:     0.0000      Z:     0.0000

  Dipole Moment: [e a0]
     X:     0.0000      Y:     0.0000      Z:     0.0000     Total:     0.0000

  Dipole Moment: [D]
     X:     0.0000      Y:     0.0000      Z:     0.0000     Total:     0.0000


*** tstop() called on c1-9.compute.lan at Tue Feb  2 11:31:19 2021
Module time:
	user time   =      21.32 seconds =       0.36 minutes
	system time =       0.15 seconds =       0.00 minutes
	total time  =         22 seconds =       0.37 minutes
Total time:
	user time   =     155.50 seconds =       2.59 minutes
	system time =       1.51 seconds =       0.03 minutes
	total time  =        157 seconds =       2.62 minutes

  //>>>>>>>>>>>>>>>>>>>>>>>>>>>>>>>>>>>//
  //    Loading displacement 3 of 3    //
  //<<<<<<<<<<<<<<<<<<<<<<<<<<<<<<<<<<<//

*** tstart() called on c1-9.compute.lan
*** at Tue Feb  2 11:31:19 2021

   => Loading Basis Set <=

    Name: AUG-CC-PVTZ
    Role: ORBITAL
    Keyword: BASIS
    atoms 1-2 entry S          line   906 file /apps/gb/PSI4/1.4.0/share/psi4/basis/aug-cc-pvtz.gbs 


         ---------------------------------------------------------
                                   SCF
               by Justin Turney, Rob Parrish, Andy Simmonett
                          and Daniel G. A. Smith
                              UKS Reference
                        1 Threads,   9536 MiB Core
         ---------------------------------------------------------

  ==> Geometry <==

    Molecular point group: d2h
    Full point group: D_inf_h

    Geometry (in Angstrom), charge = -2, multiplicity = 1:

       Center              X                  Y                   Z               Mass       
    ------------   -----------------  -----------------  -----------------  -----------------
         S            0.000000000000     0.000000000000    -1.038374596119    31.972071174400
         S            0.000000000000     0.000000000000     1.038374596119    31.972071174400

  Running in d2h symmetry.

  Rotational constants: A = ************  B =      0.24450  C =      0.24450 [cm^-1]
  Rotational constants: A = ************  B =   7330.07340  C =   7330.07340 [MHz]
  Nuclear repulsion =   65.231452328406633

  Charge       = -2
  Multiplicity = 1
  Electrons    = 34
  Nalpha       = 17
  Nbeta        = 17

  ==> Algorithm <==

  SCF Algorithm Type is DF.
  DIIS enabled.
  MOM disabled.
  Fractional occupation disabled.
  Guess Type is READ.
  Energy threshold   = 1.00e-08
  Density threshold  = 1.00e-08
  Integral threshold = 0.00e+00

  ==> Primary Basis <==

  Basis Set: AUG-CC-PVTZ
    Blend: AUG-CC-PVTZ
    Number of shells: 32
    Number of basis function: 100
    Number of Cartesian functions: 118
    Spherical Harmonics?: true
    Max angular momentum: 3

  ==> DFT Potential <==

   => Composite Functional: WB97M-V <= 

    wB97M-V Hyb-GGA Exchange-Correlation Functional

    N. Mardirossian and M. Head-Gordon, J. Chem. Phys. 144, 214110 (2016)

    Deriv               =              1
    GGA                 =           TRUE
    Meta                =           TRUE

    Exchange Hybrid     =           TRUE
    MP2 Hybrid          =          FALSE

   => Exchange-Correlation Functionals <=

    1.0000   wB97M-V exchange-correlation functional

   => Exact (HF) Exchange <=

    0.8500            HF,LR [omega = 0.3000]
    0.1500               HF 

   => VV10 Non-Local Parameters <=

    VV10 B              =     6.0000E+00
    VV10 C              =     1.0000E-02

   => Molecular Quadrature <=

    Radial Scheme          =       TREUTLER
    Pruning Scheme         =           NONE
    Nuclear Scheme         =       TREUTLER

    BS radius alpha        =              1
    Pruning alpha          =              1
    Radial Points          =             99
    Spherical Points       =            590
    Total Points           =         113386
    Total Blocks           =            978
    Max Points             =            256
    Max Functions          =            100
    Weights Tolerance      =       1.00E-15

   => Loading Basis Set <=

    Name: (AUG-CC-PVTZ AUX)
    Role: JKFIT
    Keyword: DF_BASIS_SCF
    atoms 1-2 entry S          line   730 file /apps/gb/PSI4/1.4.0/share/psi4/basis/aug-cc-pvtz-jkfit.gbs 

   => Loading Basis Set <=

    Name: AUG-CC-PVTZ
    Role: ORBITAL
    Keyword: BASIS
    atoms 1-2 entry S          line   906 file /apps/gb/PSI4/1.4.0/share/psi4/basis/aug-cc-pvtz.gbs 

[...]

  Running in d2h symmetry.

  Rotational constants: A = ************  B =      0.22562  C =      0.22562 [cm^-1]
  Rotational constants: A = ************  B =   6764.00180  C =   6764.00180 [MHz]
  Nuclear repulsion =   62.662070849975535

  Charge       = -2
  Multiplicity = 1
  Electrons    = 34
  Nalpha       = 17
  Nbeta        = 17

  ==> Algorithm <==

  SCF Algorithm Type is DF.
  DIIS enabled.
  MOM disabled.
  Fractional occupation disabled.
  Guess Type is SAD.
  Energy threshold   = 1.00e-10
  Density threshold  = 1.00e-10
  Integral threshold = 0.00e+00

  ==> Primary Basis <==

  Basis Set: AUG-CC-PVTZ
    Blend: AUG-CC-PVTZ
    Number of shells: 32
    Number of basis function: 100
    Number of Cartesian functions: 118
    Spherical Harmonics?: true
    Max angular momentum: 3

  ==> DFT Potential <==

   => Composite Functional: WB97M-V <= 

    wB97M-V Hyb-GGA Exchange-Correlation Functional

    N. Mardirossian and M. Head-Gordon, J. Chem. Phys. 144, 214110 (2016)

    Deriv               =              1
    GGA                 =           TRUE
    Meta                =           TRUE

    Exchange Hybrid     =           TRUE
    MP2 Hybrid          =          FALSE

   => Exchange-Correlation Functionals <=

    1.0000   wB97M-V exchange-correlation functional

   => Exact (HF) Exchange <=

    0.8500            HF,LR [omega = 0.3000]
    0.1500               HF 

   => VV10 Non-Local Parameters <=

    VV10 B              =     6.0000E+00
    VV10 C              =     1.0000E-02

   => Molecular Quadrature <=

    Radial Scheme          =       TREUTLER
    Pruning Scheme         =           NONE
    Nuclear Scheme         =       TREUTLER

    BS radius alpha        =              1
    Pruning alpha          =              1
    Radial Points          =             99
    Spherical Points       =            590
    Total Points           =         113420
    Total Blocks           =            980
    Max Points             =            256
    Max Functions          =            100
    Weights Tolerance      =       1.00E-15

   => Loading Basis Set <=

    Name: (AUG-CC-PVTZ AUX)
    Role: JKFIT
    Keyword: DF_BASIS_SCF
    atoms 1-2 entry S          line   730 file /apps/gb/PSI4/1.4.0/share/psi4/basis/aug-cc-pvtz-jkfit.gbs 

  ==> Pre-Iterations <==

   -------------------------------------------------------
    Irrep   Nso     Nmo     Nalpha   Nbeta   Ndocc  Nsocc
   -------------------------------------------------------
     Ag        21      21       0       0       0       0
     B1g        5       5       0       0       0       0
     B2g       12      12       0       0       0       0
     B3g       12      12       0       0       0       0
     Au         5       5       0       0       0       0
     B1u       21      21       0       0       0       0
     B2u       12      12       0       0       0       0
     B3u       12      12       0       0       0       0
   -------------------------------------------------------
    Total     100     100      17      17      17       0
   -------------------------------------------------------

  ==> Integral Setup <==

  ==> DiskDFJK: Density-Fitted J/K Matrices <==

    J tasked:                  Yes
    K tasked:                  Yes
    wK tasked:                 Yes
    Omega:               3.000E-01
    OpenMP threads:              1
    Integrals threads:           1
    Memory [MiB]:             6380
    Algorithm:                Core
    Integral Cache:           NONE
    Schwarz Cutoff:          1E-12
    Fitting Condition:       1E-10

   => Auxiliary Basis Set <=

  Basis Set: (AUG-CC-PVTZ AUX)
    Blend: AUG-CC-PVTZ-JKFIT
    Number of shells: 84
    Number of basis function: 292
    Number of Cartesian functions: 360
    Spherical Harmonics?: true
    Max angular momentum: 4

  Cached 100.0% of DFT collocation blocks in 0.754 [GiB].

  Minimum eigenvalue in the overlap matrix is 3.9177888806E-04.
  Using Symmetric Orthogonalization.

  SCF Guess: Superposition of Atomic Densities via on-the-fly atomic UHF.

  ==> Iterations <==

                           Total Energy        Delta E     RMS |[F,P]|

   @DF-UKS iter SAD:  -795.69392367397904   -7.95694e+02   0.00000e+00 
    Occupation by irrep:
             Ag   B1g   B2g   B3g    Au   B1u   B2u   B3u 
    DOCC [     5,    0,    1,    2,    0,    5,    2,    2 ]
    SOCC [     0,    0,    0,    0,    0,    0,    0,    0 ]

   @DF-UKS iter   1:  -796.06341945913039   -3.69496e-01   1.39107e-02 DIIS
    Occupation by irrep:
             Ag   B1g   B2g   B3g    Au   B1u   B2u   B3u 
    DOCC [     5,    0,    2,    2,    0,    4,    2,    2 ]
    SOCC [     0,    0,    0,    0,    0,    0,    0,    0 ]

   @DF-UKS iter   2:  -795.47856204984419    5.84857e-01   2.23645e-02 DIIS
   @DF-UKS iter   3:  -796.25297161369167   -7.74410e-01   4.39005e-03 DIIS
   @DF-UKS iter   4:  -796.28278729026692   -2.98157e-02   1.03108e-03 DIIS
   @DF-UKS iter   5:  -796.28523837686998   -2.45109e-03   2.91111e-04 DIIS
   @DF-UKS iter   6:  -796.28540694292781   -1.68566e-04   1.09610e-04 DIIS
   @DF-UKS iter   7:  -796.28543349534016   -2.65524e-05   4.54480e-05 DIIS
   @DF-UKS iter   8:  -796.28543777625725   -4.28092e-06   1.14606e-05 DIIS
   @DF-UKS iter   9:  -796.28543826996906   -4.93712e-07   2.06076e-06 DIIS
   @DF-UKS iter  10:  -796.28543830296735   -3.29983e-08   3.99499e-07 DIIS
   @DF-UKS iter  11:  -796.28543830414219   -1.17484e-09   5.68988e-08 DIIS
   @DF-UKS iter  12:  -796.28543830415356   -1.13687e-11   1.04262e-08 DIIS
   @DF-UKS iter  13:  -796.28543830415401   -4.54747e-13   1.10662e-09 DIIS
   @DF-UKS iter  14:  -796.28543830415401    0.00000e+00   1.93618e-10 DIIS
   @DF-UKS iter  15:  -796.28543830415424   -2.27374e-13   2.56842e-11 DIIS
  Energy and wave function converged.


  ==> Post-Iterations <==

   @Spin Contamination Metric:   1.065814104E-14
   @S^2 Expected:                0.000000000E+00
   @S^2 Observed:                1.065814104E-14
   @S   Expected:                0.000000000E+00
   @S   Observed:                0.000000000E+00

    Orbital Energies [Eh]
    ---------------------

    Alpha Occupied:                                                       

       1B1u  -88.787976     1Ag   -88.787973     2Ag    -7.697229  
       2B1u   -7.697193     3Ag    -5.608889     3B1u   -5.608768  
       1B2u   -5.601635     1B3u   -5.601635     1B3g   -5.601634  
       1B2g   -5.601634     4Ag    -0.431328     4B1u   -0.288445  
       5Ag    -0.012114     2B2u    0.016169     2B3u    0.016169  
       2B2g    0.115943     2B3g    0.115943  

    Alpha Virtual:                                                        

       5B1u    0.264761     6Ag     0.332124     3B3u    0.355391  
       3B2u    0.355391     3B2g    0.362796     3B3g    0.362796  
       7Ag     0.414295     6B1u    0.422344     7B1u    0.507623  
       8Ag     0.560067     1B1g    0.560072     4B3u    0.605681  
       4B2u    0.605681     9Ag     0.630552     1Au     0.639353  
       8B1u    0.639355     9B1u    0.671846     4B3g    0.685925  
       4B2g    0.685925     5B3u    0.848232     5B2u    0.848232  
      10B1u    0.920408     5B2g    0.939129     5B3g    0.939129  
      10Ag     0.940187     6B2u    0.966079     6B3u    0.966079  
      11Ag     0.980061    12Ag     1.012332     2B1g    1.012337  
      13Ag     1.044551     2Au     1.083267    11B1u    1.083274  
       7B2u    1.118107     7B3u    1.118107     6B3g    1.133142  
       6B2g    1.133142     3B1g    1.162722    14Ag     1.162729  
      12B1u    1.209692     7B2g    1.239193     7B3g    1.239193  
       8B3u    1.376738     8B2u    1.376738    13B1u    1.392161  
      14B1u    1.413717     3Au     1.413737     8B3g    1.582468  
       8B2g    1.582468    15Ag     1.622784    15B1u    1.832413  
       4B1g    2.211380    16Ag     2.211383     9B2u    2.264897  
       9B3u    2.264897     4Au     2.276426    16B1u    2.276435  
      17B1u    2.297411     9B2g    2.414865     9B3g    2.414865  
      17Ag     2.424834    10B3u    2.458166    10B2u    2.458166  
      11B3u    2.528559    11B2u    2.528559     5B1g    2.532837  
      18Ag     2.532838    19Ag     2.533787    12B2u    2.551714  
      12B3u    2.551714    10B3g    2.595939    10B2g    2.595939  
      11B2g    2.663485    11B3g    2.663485    18B1u    2.680353  
       5Au     2.680368    20Ag     2.709029    19B1u    2.775244  
      12B2g    2.924306    12B3g    2.924306    20B1u    3.907492  
      21Ag     4.712085    21B1u    5.711875  

    Beta Occupied:                                                        

       1B1u  -88.787976     1Ag   -88.787973     2Ag    -7.697229  
       2B1u   -7.697193     3Ag    -5.608889     3B1u   -5.608768  
       1B2u   -5.601635     1B3u   -5.601635     1B3g   -5.601634  
       1B2g   -5.601634     4Ag    -0.431328     4B1u   -0.288445  
       5Ag    -0.012114     2B2u    0.016169     2B3u    0.016169  
       2B2g    0.115943     2B3g    0.115943  

    Beta Virtual:                                                         

       5B1u    0.264761     6Ag     0.332124     3B3u    0.355391  
       3B2u    0.355391     3B2g    0.362796     3B3g    0.362796  
       7Ag     0.414295     6B1u    0.422344     7B1u    0.507623  
       8Ag     0.560067     1B1g    0.560072     4B3u    0.605681  
       4B2u    0.605681     9Ag     0.630552     1Au     0.639353  
       8B1u    0.639355     9B1u    0.671846     4B3g    0.685925  
       4B2g    0.685925     5B3u    0.848232     5B2u    0.848232  
      10B1u    0.920408     5B2g    0.939129     5B3g    0.939129  
      10Ag     0.940187     6B2u    0.966079     6B3u    0.966079  
      11Ag     0.980061    12Ag     1.012332     2B1g    1.012337  
      13Ag     1.044551     2Au     1.083267    11B1u    1.083274  
       7B2u    1.118107     7B3u    1.118107     6B3g    1.133142  
       6B2g    1.133142     3B1g    1.162722    14Ag     1.162729  
      12B1u    1.209692     7B2g    1.239193     7B3g    1.239193  
       8B3u    1.376738     8B2u    1.376738    13B1u    1.392161  
      14B1u    1.413717     3Au     1.413737     8B3g    1.582468  
       8B2g    1.582468    15Ag     1.622784    15B1u    1.832413  
       4B1g    2.211380    16Ag     2.211383     9B2u    2.264897  
       9B3u    2.264897     4Au     2.276426    16B1u    2.276435  
      17B1u    2.297411     9B2g    2.414865     9B3g    2.414865  
      17Ag     2.424834    10B3u    2.458166    10B2u    2.458166  
      11B3u    2.528559    11B2u    2.528559     5B1g    2.532837  
      18Ag     2.532838    19Ag     2.533787    12B2u    2.551714  
      12B3u    2.551714    10B3g    2.595939    10B2g    2.595939  
      11B2g    2.663485    11B3g    2.663485    18B1u    2.680353  
       5Au     2.680368    20Ag     2.709029    19B1u    2.775244  
      12B2g    2.924306    12B3g    2.924306    20B1u    3.907492  
      21Ag     4.712085    21B1u    5.711875  

    Final Occupation by Irrep:
             Ag   B1g   B2g   B3g    Au   B1u   B2u   B3u 
    DOCC [     5,    0,    2,    2,    0,    4,    2,    2 ]
    SOCC [     0,    0,    0,    0,    0,    0,    0,    0 ]

  @DF-UKS Final Energy:  -796.28543830415424

   => Energetics <=

    Nuclear Repulsion Energy =             62.6620708499755352
    One-Electron Energy =               -1238.9483348337394091
    Two-Electron Energy =                 419.5466873264272749
    DFT Exchange-Correlation Energy =     -39.6844140968889931
    Empirical Dispersion Energy =           0.0000000000000000
    VV10 Nonlocal Energy =                  0.1385524500713912
    Total Energy =                       -796.2854383041541269

  UHF NO Occupations:
  HONO-2 :    4 Ag 2.0000000
  HONO-1 :    5 Ag 2.0000000
  HONO-0 :    2B3g 2.0000000
  LUNO+0 :    6 Ag 0.0000000
  LUNO+1 :    5B1u 0.0000000
  LUNO+2 :    7 Ag 0.0000000
  LUNO+3 :    3B2u 0.0000000


Computation Completed


Properties will be evaluated at   0.000000,   0.000000,   0.000000 [a0]

Properties computed using the SCF density matrix

  Nuclear Dipole Moment: [e a0]
     X:     0.0000      Y:     0.0000      Z:     0.0000

  Electronic Dipole Moment: [e a0]
     X:     0.0000      Y:     0.0000      Z:     0.0000

  Dipole Moment: [e a0]
     X:     0.0000      Y:     0.0000      Z:     0.0000     Total:     0.0000

  Dipole Moment: [D]
     X:     0.0000      Y:     0.0000      Z:     0.0000     Total:     0.0000


*** tstop() called on c1-9.compute.lan at Tue Feb  2 11:40:36 2021
Module time:
	user time   =      41.37 seconds =       0.69 minutes
	system time =       0.22 seconds =       0.00 minutes
	total time  =         41 seconds =       0.68 minutes
Total time:
	user time   =     709.41 seconds =      11.82 minutes
	system time =       4.41 seconds =       0.07 minutes
	total time  =        714 seconds =      11.90 minutes

         ----------------------------------------------------------
                                   FINDIF
                     R. A. King and Jonathon Misiewicz
         ---------------------------------------------------------

  Computing second-derivative from energies using projected, 
  symmetry-adapted, cartesian coordinates.

  3 energies passed in, including the reference geometry.
    Using 3-point formula.
    Energy without displacement: -796.2854383967
    Check energies below for precision!
    0: -1 :      -796.2854383048
    0: 1  :      -796.2854383042

-------------------------------------------------------------


  ==> Harmonic Vibrational Analysis <==

  non-mass-weighted Hessian:       Symmetric? True   Hermitian? True   Lin Dep Dim?  5 (0)
  projection of translations (True) and rotations (True) removed 5 degrees of freedom (5)
  total projector:                 Symmetric? True   Hermitian? True   Lin Dep Dim?  5 (5)
  mass-weighted Hessian:           Symmetric? True   Hermitian? True   Lin Dep Dim?  5 (0)
  pre-proj  low-frequency mode:    0.0000  [cm^-1]
  pre-proj  low-frequency mode:    0.0000  [cm^-1]
  pre-proj  low-frequency mode:    0.0000  [cm^-1]
  pre-proj  low-frequency mode:    0.0000  [cm^-1]
  pre-proj  low-frequency mode:    0.0000  [cm^-1]
  pre-proj  all modes:['0.0000' '0.0000' '0.0000' '0.0000' '0.0000' '441.6558']
  projected mass-weighted Hessian: Symmetric? True   Hermitian? True   Lin Dep Dim?  5 (5)
  post-proj low-frequency mode:    0.0000i [cm^-1] (TR)
  post-proj low-frequency mode:    0.0000  [cm^-1] (TR)
  post-proj low-frequency mode:    0.0000  [cm^-1] (TR)
  post-proj low-frequency mode:    0.0000  [cm^-1] (TR)
  post-proj low-frequency mode:    0.0000  [cm^-1] (TR)
  post-proj  all modes:['0.0000i' '0.0000' '0.0000' '0.0000' '0.0000' '441.6558']

  Vibration                       6           
  Freq [cm^-1]                 441.6558       
  Irrep                           Ag          
  Reduced mass [u]             31.9721        
  Force const [mDyne/A]         3.6744        
  Turning point v=0 [a0]        0.0923        
  RMS dev v=0 [a0 u^1/2]        0.3692        
  Char temp [K]                635.4444       
  ----------------------------------------------------------------------------------
      1   S                0.00  0.00  0.71   
      2   S               -0.00  0.00 -0.71   

  ==> Thermochemistry Components <==

  Entropy, S
    Electronic S            0.000 [cal/(mol K)]        0.000 [J/(mol K)]       0.00000000 [mEh/K] (multiplicity = 1)
    Translational S        38.385 [cal/(mol K)]      160.603 [J/(mol K)]       0.06117054 [mEh/K] (mol. weight = 63.9441 [u], P = 101325.00 [Pa])
    Rotational S           14.169 [cal/(mol K)]       59.283 [J/(mol K)]       0.02257986 [mEh/K] (symmetry no. = 2)
    Vibrational S           0.821 [cal/(mol K)]        3.437 [J/(mol K)]       0.00130901 [mEh/K]
  Total S                  53.376 [cal/(mol K)]      223.323 [J/(mol K)]       0.08505941 [mEh/K]
  Correction S              0.000 [cal/(mol K)]        0.000 [J/(mol K)]       0.00000000 [mEh/K]

  Constant volume heat capacity, Cv
    Electronic Cv           0.000 [cal/(mol K)]        0.000 [J/(mol K)]       0.00000000 [mEh/K]
    Translational Cv        2.981 [cal/(mol K)]       12.472 [J/(mol K)]       0.00475022 [mEh/K]
    Rotational Cv           1.987 [cal/(mol K)]        8.314 [J/(mol K)]       0.00316681 [mEh/K]
    Vibrational Cv          1.379 [cal/(mol K)]        5.771 [J/(mol K)]       0.00219804 [mEh/K]
  Total Cv                  6.347 [cal/(mol K)]       26.557 [J/(mol K)]       0.01011507 [mEh/K]
  Correction Cv             0.000 [cal/(mol K)]        0.000 [J/(mol K)]       0.00000000 [mEh/K]

  Constant pressure heat capacity, Cp
    Electronic Cp           0.000 [cal/(mol K)]        0.000 [J/(mol K)]       0.00000000 [mEh/K]
    Translational Cp        4.968 [cal/(mol K)]       20.786 [J/(mol K)]       0.00791703 [mEh/K]
    Rotational Cp           1.987 [cal/(mol K)]        8.314 [J/(mol K)]       0.00316681 [mEh/K]
    Vibrational Cp          1.379 [cal/(mol K)]        5.771 [J/(mol K)]       0.00219804 [mEh/K]
  Total Cp                  8.335 [cal/(mol K)]       34.872 [J/(mol K)]       0.01328188 [mEh/K]
  Correction Cp             0.000 [cal/(mol K)]        0.000 [J/(mol K)]       0.00000000 [mEh/K]

  ==> Thermochemistry Energy Analysis <==

  Raw electronic energy, E0
  Total E0, Electronic energy at well bottom at 0 [K]                 -796.28543840 [Eh]

  Zero-point energy, ZPE_vib = Sum_i nu_i / 2
    Electronic ZPE          0.000 [kcal/mol]        0.000 [kJ/mol]       0.00000000 [Eh]
    Translational ZPE       0.000 [kcal/mol]        0.000 [kJ/mol]       0.00000000 [Eh]
    Rotational ZPE          0.000 [kcal/mol]        0.000 [kJ/mol]       0.00000000 [Eh]
    Vibrational ZPE         0.631 [kcal/mol]        2.642 [kJ/mol]       0.00100617 [Eh]         220.828 [cm^-1]
  Correction ZPE            0.631 [kcal/mol]        2.642 [kJ/mol]       0.00100617 [Eh]         220.828 [cm^-1]
  Total ZPE, Electronic energy at 0 [K]                               -796.28443223 [Eh]

  Thermal Energy, E (includes ZPE)
    Electronic E            0.000 [kcal/mol]        0.000 [kJ/mol]       0.00000000 [Eh]
    Translational E         0.889 [kcal/mol]        3.718 [kJ/mol]       0.00141628 [Eh]
    Rotational E            0.592 [kcal/mol]        2.479 [kJ/mol]       0.00094418 [Eh]
    Vibrational E           0.801 [kcal/mol]        3.353 [kJ/mol]       0.00127716 [Eh]
  Correction E              2.283 [kcal/mol]        9.551 [kJ/mol]       0.00363762 [Eh]
  Total E, Electronic energy at  298.15 [K]                           -796.28180078 [Eh]

  Enthalpy, H_trans = E_trans + k_B * T
    Electronic H            0.000 [kcal/mol]        0.000 [kJ/mol]       0.00000000 [Eh]
    Translational H         1.481 [kcal/mol]        6.197 [kJ/mol]       0.00236046 [Eh]
    Rotational H            0.592 [kcal/mol]        2.479 [kJ/mol]       0.00094418 [Eh]
    Vibrational H           0.801 [kcal/mol]        3.353 [kJ/mol]       0.00127716 [Eh]
  Correction H              2.875 [kcal/mol]       12.030 [kJ/mol]       0.00458181 [Eh]
  Total H, Enthalpy at  298.15 [K]                                    -796.28085659 [Eh]

  Gibbs free energy, G = H - T * S
    Electronic G            0.000 [kcal/mol]        0.000 [kJ/mol]       0.00000000 [Eh]
    Translational G        -9.963 [kcal/mol]      -41.686 [kJ/mol]      -0.01587754 [Eh]
    Rotational G           -3.632 [kcal/mol]      -15.196 [kJ/mol]      -0.00578800 [Eh]
    Vibrational G           0.557 [kcal/mol]        2.328 [kJ/mol]       0.00088688 [Eh]
  Correction G            -13.039 [kcal/mol]      -54.554 [kJ/mol]      -0.02077866 [Eh]
  Total G, Free enthalpy at  298.15 [K]                               -796.30621705 [Eh]

    Psi4 stopped on: Tuesday, 02 February 2021 11:40AM
    Psi4 wall time for execution: 0:11:54.94

*** Psi4 exiting successfully. Buy a developer a beer!
