
    -----------------------------------------------------------------------
          Psi4: An Open-Source Ab Initio Electronic Structure Package
                               Psi4 1.4a2.dev191 

                         Git: Rev {master} 0ab5346 


    R. M. Parrish, L. A. Burns, D. G. A. Smith, A. C. Simmonett,
    A. E. DePrince III, E. G. Hohenstein, U. Bozkaya, A. Yu. Sokolov,
    R. Di Remigio, R. M. Richard, J. F. Gonthier, A. M. James,
    H. R. McAlexander, A. Kumar, M. Saitow, X. Wang, B. P. Pritchard,
    P. Verma, H. F. Schaefer III, K. Patkowski, R. A. King, E. F. Valeev,
    F. A. Evangelista, J. M. Turney, T. D. Crawford, and C. D. Sherrill,
    J. Chem. Theory Comput. 13(7) pp 3185--3197 (2017).
    (doi: 10.1021/acs.jctc.7b00174)


                         Additional Contributions by
    P. Kraus, H. Kruse, M. H. Lechner, M. C. Schieber, R. A. Shaw,
    A. Alenaizan, R. Galvelis, Z. L. Glick, S. Lehtola, and J. P. Misiewicz

    -----------------------------------------------------------------------


    Psi4 started on: Wednesday, 03 February 2021 12:06PM

    Process ID: 1689
    Host:       c2-18.compute.lan
    PSIDATADIR: /apps/gb/PSI4/1.4.0/share/psi4
    Memory:     500.0 MiB
    Threads:    1
    
  ==> Input File <==

--------------------------------------------------------------------------
memory 10 GB

molecule  {
-1 4
S
S 1 r1
S 1 r2 2 a1
r1 = 2.0
r2 = 2.1
a1 = 120.0
}

set {
reference uks
basis aug-cc-pvtz
g_convergence gau_verytight
dft_spherical_points 590
dft_radial_points 99
maxiter 500
basis_guess true}

optimize('wb97m-v')
frequencies('wb97m-v')

--------------------------------------------------------------------------

  Memory set to   9.313 GiB by Python driver.
gradient() will perform gradient computation by finite difference of analytic energies.

         ----------------------------------------------------------
                                   FINDIF
                     R. A. King and Jonathon Misiewicz
         ---------------------------------------------------------

  Using finite-differences of energies to determine gradients.
    Generating geometries for use with 3-point formula.
    Displacement size will be 5.00e-03.
    Number of atoms is 3.
    Number of symmetric SALCs is 3.
    Translations projected? 1. Rotations projected? 1.
    Number of geometries (including reference) is 7.

  //>>>>>>>>>>>>>>>>>>>>>>>>>>>>>>>>>>>//
  //    Loading displacement 1 of 7    //
  //<<<<<<<<<<<<<<<<<<<<<<<<<<<<<<<<<<<//

*** tstart() called on c2-18.compute.lan
*** at Wed Feb  3 12:06:24 2021


  //>>>>>>>>>>>>>>>>>>>>>>>>>>>>>>>>>>>//
  //       Guess SCF, 3-21G Basis      //
  //<<<<<<<<<<<<<<<<<<<<<<<<<<<<<<<<<<<//

   => Loading Basis Set <=

    Name: 3-21G
    Role: ORBITAL
    Keyword: BASIS
    atoms 1-3 entry S          line   198 file /apps/gb/PSI4/1.4.0/share/psi4/basis/3-21g.gbs 


         ---------------------------------------------------------
                           SCF Castup computation                  
         ---------------------------------------------------------
                                   SCF
               by Justin Turney, Rob Parrish, Andy Simmonett
                          and Daniel G. A. Smith
                              UKS Reference
                        1 Threads,   9536 MiB Core
         ---------------------------------------------------------

  ==> Geometry <==

    Molecular point group: cs
    Full point group: Cs

    Geometry (in Angstrom), charge = -1, multiplicity = 4:

       Center              X                  Y                   Z               Mass       
    ------------   -----------------  -----------------  -----------------  -----------------
         S            0.606217782649     0.316666666667     0.000000000000    31.972071174400
         S            0.606217782649    -1.683333333333     0.000000000000    31.972071174400
         S           -1.212435565298     1.366666666667     0.000000000000    31.972071174400

  Running in cs symmetry.

  Rotational constants: A =      0.75413  B =      0.08359  C =      0.07525 [cm^-1]
  Rotational constants: A =  22608.14975  B =   2506.04720  C =   2255.97858 [MHz]
  Nuclear repulsion =  170.392939668640480

  Charge       = -1
  Multiplicity = 4
  Electrons    = 49
  Nalpha       = 26
  Nbeta        = 23

  ==> Algorithm <==

  SCF Algorithm Type is DF.
  DIIS enabled.
  MOM disabled.
  Fractional occupation disabled.
  Guess Type is SAD.
  Energy threshold   = 1.00e-08
  Density threshold  = 1.00e-08
  Integral threshold = 0.00e+00

  ==> Primary Basis <==

  Basis Set: 3-21G
    Blend: 3-21G
    Number of shells: 21
    Number of basis function: 39
    Number of Cartesian functions: 39
    Spherical Harmonics?: false
    Max angular momentum: 1

  ==> DFT Potential <==

   => Composite Functional: WB97M-V <= 

    wB97M-V Hyb-GGA Exchange-Correlation Functional

    N. Mardirossian and M. Head-Gordon, J. Chem. Phys. 144, 214110 (2016)

    Deriv               =              1
    GGA                 =           TRUE
    Meta                =           TRUE

    Exchange Hybrid     =           TRUE
    MP2 Hybrid          =          FALSE

   => Exchange-Correlation Functionals <=

    1.0000   wB97M-V exchange-correlation functional

   => Exact (HF) Exchange <=

    0.8500            HF,LR [omega = 0.3000]
    0.1500               HF 

   => VV10 Non-Local Parameters <=

    VV10 B              =     6.0000E+00
    VV10 C              =     1.0000E-02

   => Molecular Quadrature <=

    Radial Scheme          =       TREUTLER
    Pruning Scheme         =           NONE
    Nuclear Scheme         =       TREUTLER

    BS radius alpha        =              1
    Pruning alpha          =              1
    Radial Points          =             99
    Spherical Points       =            590
    Total Points           =         156223
    Total Blocks           =           1217
    Max Points             =            256
    Max Functions          =             36
    Weights Tolerance      =       1.00E-15

   => Loading Basis Set <=

    Name: (3-21G AUX)
    Role: JKFIT
    Keyword: DF_BASIS_SCF
    atoms 1-3 entry S          line   908 file /apps/gb/PSI4/1.4.0/share/psi4/basis/def2-svp-jkfit.gbs 

  ==> Pre-Iterations <==

   -------------------------------------------------------
    Irrep   Nso     Nmo     Nalpha   Nbeta   Ndocc  Nsocc
   -------------------------------------------------------
     A'        30      30       0       0       0       0
     A"         9       9       0       0       0       0
   -------------------------------------------------------
    Total      39      39      26      23      23       3
   -------------------------------------------------------

  ==> Integral Setup <==

  ==> DiskDFJK: Density-Fitted J/K Matrices <==

    J tasked:                  Yes
    K tasked:                  Yes
    wK tasked:                 Yes
    Omega:               3.000E-01
    OpenMP threads:              1
    Integrals threads:           1
    Memory [MiB]:             6832
    Algorithm:                Core
    Integral Cache:           NONE
    Schwarz Cutoff:          1E-12
    Fitting Condition:       1E-10

   => Auxiliary Basis Set <=

  Basis Set: (3-21G AUX)
    Blend: DEF2-SVP-JKFIT
    Number of shells: 114
    Number of basis function: 465
    Number of Cartesian functions: 465
    Spherical Harmonics?: false
    Max angular momentum: 4

  Cached 100.0% of DFT collocation blocks in 0.313 [GiB].

  Minimum eigenvalue in the overlap matrix is 3.0591905050E-02.
  Using Symmetric Orthogonalization.

  SCF Guess: Superposition of Atomic Densities via on-the-fly atomic UHF.

  ==> Iterations <==

                           Total Energy        Delta E     RMS |[F,P]|

   @DF-UKS iter SAD: -1188.17831971672422   -1.18818e+03   0.00000e+00 
   @DF-UKS iter   1: -1188.43357171060961   -2.55252e-01   9.73422e-03 DIIS
   @DF-UKS iter   2: -1188.46713676961508   -3.35651e-02   7.21403e-03 DIIS
   @DF-UKS iter   3: -1188.49746438106422   -3.03276e-02   2.30317e-03 DIIS
   @DF-UKS iter   4: -1188.50134608918415   -3.88171e-03   8.60010e-04 DIIS
   @DF-UKS iter   5: -1188.50210641533113   -7.60326e-04   3.17561e-04 DIIS
   @DF-UKS iter   6: -1188.50251705355072   -4.10638e-04   2.29630e-04 DIIS
   @DF-UKS iter   7: -1188.50292988543811   -4.12832e-04   2.29767e-04 DIIS
   @DF-UKS iter   8: -1188.50269899837303    2.30887e-04   2.20141e-04 DIIS
   @DF-UKS iter   9: -1188.50167298796987    1.02601e-03   1.71376e-04 DIIS
   @DF-UKS iter  10: -1188.50161700284070    5.59851e-05   9.90470e-05 DIIS
   @DF-UKS iter  11: -1188.50167791561034   -6.09128e-05   4.85891e-05 DIIS
   @DF-UKS iter  12: -1188.50168965749435   -1.17419e-05   2.66454e-05 DIIS
   @DF-UKS iter  13: -1188.50169619557732   -6.53808e-06   8.43431e-06 DIIS
   @DF-UKS iter  14: -1188.50169678274642   -5.87169e-07   4.79078e-06 DIIS
   @DF-UKS iter  15: -1188.50169683093259   -4.81862e-08   1.92050e-06 DIIS
   @DF-UKS iter  16: -1188.50169684666253   -1.57299e-08   3.32722e-07 DIIS
   @DF-UKS iter  17: -1188.50169684682305   -1.60526e-10   1.22108e-07 DIIS
   @DF-UKS iter  18: -1188.50169684687035   -4.72937e-11   5.05926e-08 DIIS
   @DF-UKS iter  19: -1188.50169684688058   -1.02318e-11   2.96391e-08 DIIS
   @DF-UKS iter  20: -1188.50169684688399   -3.41061e-12   1.05242e-08 DIIS
   @DF-UKS iter  21: -1188.50169684688353    4.54747e-13   6.61618e-09 DIIS
  Energy and wave function converged.


  ==> Post-Iterations <==

   @Spin Contamination Metric:   1.393007553E-02
   @S^2 Expected:                3.750000000E+00
   @S^2 Observed:                3.763930076E+00
   @S   Expected:                1.500000000E+00
   @S   Observed:                1.500000000E+00

    Orbital Energies [Eh]
    ---------------------

    Alpha Occupied:                                                       

       1Ap   -88.404019     2Ap   -88.362197     3Ap   -88.346109  
       4Ap    -7.910580     5Ap    -7.865240     6Ap    -7.846822  
       7Ap    -5.826081     8Ap    -5.822233     1App   -5.820803  
       9Ap    -5.785397    10Ap    -5.776641     2App   -5.772982  
      11Ap    -5.767844     3App   -5.759675    12Ap    -5.755427  
      13Ap    -0.764854    14Ap    -0.635705    15Ap    -0.508293  
      16Ap    -0.311863    17Ap    -0.285465     4App   -0.274991  
       5App   -0.171790    18Ap    -0.167487    19Ap    -0.152250  
       6App   -0.105806    20Ap    -0.003313  

    Alpha Virtual:                                                        

      21Ap     0.269354    22Ap     0.657142    23Ap     0.727017  
      24Ap     0.743639    25Ap     0.750694     7App    0.753559  
      26Ap     0.784107     8App    0.802421    27Ap     0.823410  
       9App    0.824633    28Ap     0.850097    29Ap     0.890929  
      30Ap     0.919858  

    Beta Occupied:                                                        

       1Ap   -88.397217     2Ap   -88.356878     3Ap   -88.338378  
       4Ap    -7.903484     5Ap    -7.860144     6Ap    -7.839320  
       7Ap    -5.822578     8Ap    -5.808854     1App   -5.807403  
       9Ap    -5.776383    10Ap    -5.767111     2App   -5.765956  
      11Ap    -5.752402     3App   -5.747180    12Ap    -5.746543  
      13Ap    -0.731103    14Ap    -0.595966    15Ap    -0.451992  
      16Ap    -0.259680    17Ap    -0.241620     4App   -0.232077  
       5App   -0.108366    18Ap    -0.100279  

    Beta Virtual:                                                         

      19Ap     0.086042     6App    0.138250    20Ap     0.245469  
      21Ap     0.313823    22Ap     0.678190    23Ap     0.750373  
      24Ap     0.764564    25Ap     0.775287     7App    0.778045  
      26Ap     0.804941     8App    0.824868    27Ap     0.848597  
       9App    0.852516    28Ap     0.867785    29Ap     0.915696  
      30Ap     0.938130  

    Final Occupation by Irrep:
             Ap   App 
    DOCC [    18,    5 ]
    SOCC [     2,    1 ]

  @DF-UKS Final Energy: -1188.50169684688353

   => Energetics <=

    Nuclear Repulsion Energy =            170.3929396686404800
    One-Electron Energy =               -1992.9699026183152455
    Two-Electron Energy =                 693.3084219325611457
    DFT Exchange-Correlation Energy =     -59.4342521233712446
    Empirical Dispersion Energy =           0.0000000000000000
    VV10 Nonlocal Energy =                  0.2010962936009364
    Total Energy =                      -1188.5016968468835330

  UHF NO Occupations:
  HONO-2 :    6App 1.0000000
  HONO-1 :   19 Ap 1.0000000
  HONO-0 :   20 Ap 1.0000000
  LUNO+0 :   21 Ap 0.0055735
  LUNO+1 :    7App 0.0006225
  LUNO+2 :   22 Ap 0.0002816
  LUNO+3 :    8App 0.0002570


Computation Completed

  //>>>>>>>>>>>>>>>>>>>>>>>>>>>>>>>>>>>//
  //              WB97M-V              //
  //<<<<<<<<<<<<<<<<<<<<<<<<<<<<<<<<<<<//

   => Loading Basis Set <=

    Name: AUG-CC-PVTZ
    Role: ORBITAL
    Keyword: BASIS
    atoms 1-3 entry S          line   906 file /apps/gb/PSI4/1.4.0/share/psi4/basis/aug-cc-pvtz.gbs 


         ---------------------------------------------------------
                                   SCF
               by Justin Turney, Rob Parrish, Andy Simmonett
                          and Daniel G. A. Smith
                              UKS Reference
                        1 Threads,   9536 MiB Core
         ---------------------------------------------------------

  ==> Geometry <==

    Molecular point group: cs
    Full point group: Cs

    Geometry (in Angstrom), charge = -1, multiplicity = 4:

       Center              X                  Y                   Z               Mass       
    ------------   -----------------  -----------------  -----------------  -----------------
         S            0.606217782649     0.316666666667     0.000000000000    31.972071174400
         S            0.606217782649    -1.683333333333     0.000000000000    31.972071174400
         S           -1.212435565298     1.366666666667     0.000000000000    31.972071174400

  Running in cs symmetry.

  Rotational constants: A =      0.75413  B =      0.08359  C =      0.07525 [cm^-1]
  Rotational constants: A =  22608.14975  B =   2506.04720  C =   2255.97858 [MHz]
  Nuclear repulsion =  170.392939668640480

  Charge       = -1
  Multiplicity = 4
  Electrons    = 49
  Nalpha       = 26
  Nbeta        = 23

  ==> Algorithm <==

  SCF Algorithm Type is DF.
  DIIS enabled.
  MOM disabled.
  Fractional occupation disabled.
  Guess Type is SAD.
  Energy threshold   = 1.00e-08
  Density threshold  = 1.00e-08
  Integral threshold = 0.00e+00

  ==> Primary Basis <==

  Basis Set: AUG-CC-PVTZ
    Blend: AUG-CC-PVTZ
    Number of shells: 48
    Number of basis function: 150
    Number of Cartesian functions: 177
    Spherical Harmonics?: true
    Max angular momentum: 3

  ==> DFT Potential <==

   => Composite Functional: WB97M-V <= 

    wB97M-V Hyb-GGA Exchange-Correlation Functional

    N. Mardirossian and M. Head-Gordon, J. Chem. Phys. 144, 214110 (2016)

    Deriv               =              1
    GGA                 =           TRUE
    Meta                =           TRUE

    Exchange Hybrid     =           TRUE
    MP2 Hybrid          =          FALSE

   => Exchange-Correlation Functionals <=

    1.0000   wB97M-V exchange-correlation functional

   => Exact (HF) Exchange <=

    0.8500            HF,LR [omega = 0.3000]
    0.1500               HF 

   => VV10 Non-Local Parameters <=

    VV10 B              =     6.0000E+00
    VV10 C              =     1.0000E-02

   => Molecular Quadrature <=

    Radial Scheme          =       TREUTLER
    Pruning Scheme         =           NONE
    Nuclear Scheme         =       TREUTLER

    BS radius alpha        =              1
    Pruning alpha          =              1
    Radial Points          =             99
    Spherical Points       =            590
    Total Points           =         169927
    Total Blocks           =           1392
    Max Points             =            256
    Max Functions          =            150
    Weights Tolerance      =       1.00E-15

   => Loading Basis Set <=

    Name: (AUG-CC-PVTZ AUX)
    Role: JKFIT
    Keyword: DF_BASIS_SCF
    atoms 1-3 entry S          line   730 file /apps/gb/PSI4/1.4.0/share/psi4/basis/aug-cc-pvtz-jkfit.gbs 


  Computing basis projection from 3-21G to AUG-CC-PVTZ

  ==> Pre-Iterations <==

   -------------------------------------------------------
    Irrep   Nso     Nmo     Nalpha   Nbeta   Ndocc  Nsocc
   -------------------------------------------------------
     A'        99      99       0       0       0       0
     A"        51      51       0       0       0       0
   -------------------------------------------------------
    Total     150     150      26      23      23       3
   -------------------------------------------------------

  ==> Integral Setup <==

  ==> DiskDFJK: Density-Fitted J/K Matrices <==

    J tasked:                  Yes
    K tasked:                  Yes
    wK tasked:                 Yes
    Omega:               3.000E-01
    OpenMP threads:              1
    Integrals threads:           1
    Memory [MiB]:             5488
    Algorithm:                Core
    Integral Cache:           NONE
    Schwarz Cutoff:          1E-12
    Fitting Condition:       1E-10

   => Auxiliary Basis Set <=

  Basis Set: (AUG-CC-PVTZ AUX)
    Blend: AUG-CC-PVTZ-JKFIT
    Number of shells: 126
    Number of basis function: 438
    Number of Cartesian functions: 540
    Spherical Harmonics?: true
    Max angular momentum: 4

  Cached 100.0% of DFT collocation blocks in 1.625 [GiB].

  Minimum eigenvalue in the overlap matrix is 2.2915518432E-04.
  Using Symmetric Orthogonalization.

  SCF Guess: Orbitals guess was supplied from a previous computation.

  ==> Iterations <==

                           Total Energy        Delta E     RMS |[F,P]|

   @DF-UKS iter   0: -1194.04146265719646   -1.19404e+03   4.00957e-02 
   @DF-UKS iter   1: -1194.49337363249197   -4.51911e-01   1.63098e-03 DIIS
   @DF-UKS iter   2: -1194.50291423584940   -9.54060e-03   8.80098e-04 DIIS
   @DF-UKS iter   3: -1194.50768159208678   -4.76736e-03   3.74646e-04 DIIS
   @DF-UKS iter   4: -1194.50886731631726   -1.18572e-03   9.72009e-05 DIIS
   @DF-UKS iter   5: -1194.50902145636360   -1.54140e-04   5.19089e-05 DIIS
   @DF-UKS iter   6: -1194.50907822646423   -5.67701e-05   2.82160e-05 DIIS
   @DF-UKS iter   7: -1194.50910416221859   -2.59358e-05   1.63949e-05 DIIS
   @DF-UKS iter   8: -1194.50912647200994   -2.23098e-05   1.18780e-05 DIIS
   @DF-UKS iter   9: -1194.50914386782824   -1.73958e-05   1.23390e-05 DIIS
   @DF-UKS iter  10: -1194.50914038440351    3.48342e-06   1.21026e-05 DIIS
   @DF-UKS iter  11: -1194.50910691880881    3.34656e-05   9.06900e-06 DIIS
   @DF-UKS iter  12: -1194.50909320846449    1.37103e-05   5.99339e-06 DIIS
   @DF-UKS iter  13: -1194.50909325920247   -5.07380e-08   3.77365e-06 DIIS
   @DF-UKS iter  14: -1194.50909572917135   -2.46997e-06   2.35357e-06 DIIS
   @DF-UKS iter  15: -1194.50909643098930   -7.01818e-07   1.80888e-06 DIIS
   @DF-UKS iter  16: -1194.50909693002200   -4.99033e-07   9.12820e-07 DIIS
   @DF-UKS iter  17: -1194.50909703683055   -1.06809e-07   4.33430e-07 DIIS
   @DF-UKS iter  18: -1194.50909705538879   -1.85582e-08   2.62640e-07 DIIS
   @DF-UKS iter  19: -1194.50909705793970   -2.55091e-09   8.39667e-08 DIIS
   @DF-UKS iter  20: -1194.50909705835056   -4.10864e-10   3.95217e-08 DIIS
   @DF-UKS iter  21: -1194.50909705835875   -8.18545e-12   1.78670e-08 DIIS
   @DF-UKS iter  22: -1194.50909705837830   -1.95541e-11   8.47580e-09 DIIS
  Energy and wave function converged.


  ==> Post-Iterations <==

   @Spin Contamination Metric:   2.306778417E-02
   @S^2 Expected:                3.750000000E+00
   @S^2 Observed:                3.773067784E+00
   @S   Expected:                1.500000000E+00
   @S   Observed:                1.500000000E+00

    Orbital Energies [Eh]
    ---------------------

    Alpha Occupied:                                                       

       1Ap   -89.086558     2Ap   -89.045503     3Ap   -89.020559  
       4Ap    -7.995909     5Ap    -7.957175     6Ap    -7.932268  
       1App   -5.904044     7Ap    -5.904030     8Ap    -5.903796  
       9Ap    -5.870282    10Ap    -5.864072     2App   -5.861739  
      11Ap    -5.846271     3App   -5.839737    12Ap    -5.836328  
      13Ap    -0.766323    14Ap    -0.647854    15Ap    -0.534626  
      16Ap    -0.331104    17Ap    -0.303666     4App   -0.291238  
       5App   -0.192865    18Ap    -0.192009    19Ap    -0.172611  
       6App   -0.123758    20Ap    -0.015419  

    Alpha Virtual:                                                        

      21Ap     0.147601    22Ap     0.168441    23Ap     0.189010  
       7App    0.195204    24Ap     0.205020    25Ap     0.213530  
       8App    0.213615     9App    0.220000    26Ap     0.229930  
      27Ap     0.244980    28Ap     0.250749    29Ap     0.317126  
      30Ap     0.335182    10App    0.355718    31Ap     0.374866  
      11App    0.377406    32Ap     0.405860    33Ap     0.428641  
      34Ap     0.432410    12App    0.446459    35Ap     0.448424  
      13App    0.453019    14App    0.491346    36Ap     0.493524  
      37Ap     0.503516    38Ap     0.521042    15App    0.538871  
      39Ap     0.560693    16App    0.620317    40Ap     0.642084  
      17App    0.692374    41Ap     0.699514    42Ap     0.706345  
      43Ap     0.711899    44Ap     0.728999    18App    0.732465  
      19App    0.732616    45Ap     0.738303    46Ap     0.749494  
      20App    0.750679    47Ap     0.789022    21App    0.798700  
      48Ap     0.801617    49Ap     0.810937    22App    0.825199  
      50Ap     0.830558    51Ap     0.840931    52Ap     0.863091  
      23App    0.869895    53Ap     0.909049    24App    0.909753  
      25App    0.925105    54Ap     0.961963    26App    0.965623  
      55Ap     0.970738    27App    0.983070    56Ap     1.006842  
      57Ap     1.025460    58Ap     1.030990    59Ap     1.106708  
      28App    1.121492    29App    1.156434    60Ap     1.186050  
      30App    1.216942    61Ap     1.223063    31App    1.293759  
      62Ap     1.297485    63Ap     1.302841    64Ap     1.338110  
      65Ap     1.358567    32App    1.381314    33App    1.386759  
      66Ap     1.480819    67Ap     1.489164    68Ap     1.558430  
      69Ap     1.660806    70Ap     1.950295    34App    1.969140  
      35App    1.984874    71Ap     1.995673    72Ap     2.028344  
      36App    2.036640    37App    2.040013    73Ap     2.047853  
      74Ap     2.073696    38App    2.113063    75Ap     2.126364  
      76Ap     2.141001    77Ap     2.166873    39App    2.177722  
      78Ap     2.183597    40App    2.188214    41App    2.207925  
      79Ap     2.215102    42App    2.236662    80Ap     2.244845  
      43App    2.259393    81Ap     2.288986    82Ap     2.303143  
      44App    2.319687    83Ap     2.330342    45App    2.338518  
      84Ap     2.344352    46App    2.413693    85Ap     2.419238  
      47App    2.432559    86Ap     2.438525    87Ap     2.451754  
      48App    2.464730    49App    2.512534    88Ap     2.550615  
      89Ap     2.570460    90Ap     2.615159    91Ap     2.635428  
      92Ap     2.664856    50App    2.706243    93Ap     2.729099  
      51App    2.769960    94Ap     2.871490    95Ap     3.764569  
      96Ap     3.870889    97Ap     4.944651    98Ap     5.353469  
      99Ap     5.822414  

    Beta Occupied:                                                        

       1Ap   -89.079925     2Ap   -89.040341     3Ap   -89.013980  
       4Ap    -7.988621     5Ap    -7.951938     6Ap    -7.925539  
       7Ap    -5.900536     8Ap    -5.891423     1App   -5.889712  
       9Ap    -5.860903    10Ap    -5.855227     2App   -5.854514  
      11Ap    -5.832696     3App   -5.828813    12Ap    -5.828795  
      13Ap    -0.734812    14Ap    -0.611047    15Ap    -0.477567  
      16Ap    -0.284569    17Ap    -0.259200     4App   -0.246906  
       5App   -0.137332    18Ap    -0.124812  

    Beta Virtual:                                                         

      19Ap     0.058444     6App    0.115777    20Ap     0.143330  
      21Ap     0.152978    22Ap     0.185056     7App    0.196050  
      23Ap     0.196327    24Ap     0.207911     8App    0.213309  
       9App    0.220380    25Ap     0.227502    26Ap     0.238247  
      27Ap     0.248287    28Ap     0.280457    29Ap     0.319996  
      30Ap     0.340859    10App    0.360532    31Ap     0.378820  
      11App    0.389210    32Ap     0.420275    33Ap     0.434454  
      34Ap     0.442626    12App    0.457553    35Ap     0.458072  
      13App    0.461204    14App    0.497397    36Ap     0.499850  
      37Ap     0.503808    38Ap     0.525993    15App    0.541363  
      39Ap     0.568275    16App    0.631213    40Ap     0.649502  
      17App    0.702037    41Ap     0.707432    42Ap     0.715143  
      43Ap     0.724179    44Ap     0.737797    18App    0.742899  
      19App    0.746499    45Ap     0.748462    20App    0.763749  
      46Ap     0.765420    47Ap     0.798806    48Ap     0.816240  
      21App    0.822201    49Ap     0.830964    22App    0.842777  
      50Ap     0.851735    51Ap     0.868803    52Ap     0.881621  
      23App    0.889535    24App    0.925756    53Ap     0.933095  
      25App    0.950215    54Ap     0.970548    26App    0.972293  
      55Ap     0.980417    27App    0.992651    56Ap     1.031493  
      57Ap     1.040393    58Ap     1.046255    59Ap     1.119729  
      28App    1.130616    29App    1.169145    60Ap     1.195633  
      30App    1.227395    61Ap     1.230378    31App    1.308524  
      62Ap     1.314838    63Ap     1.318263    64Ap     1.354286  
      65Ap     1.376395    32App    1.396714    33App    1.399329  
      66Ap     1.506852    67Ap     1.508561    68Ap     1.584994  
      69Ap     1.697581    70Ap     1.995166    34App    2.010528  
      35App    2.022895    71Ap     2.031049    36App    2.061557  
      72Ap     2.072231    73Ap     2.074906    37App    2.080428  
      74Ap     2.111427    38App    2.151846    75Ap     2.154730  
      76Ap     2.179736    77Ap     2.191278    39App    2.206276  
      78Ap     2.208530    40App    2.218147    41App    2.234149  
      79Ap     2.240825    42App    2.270373    80Ap     2.280239  
      43App    2.302229    81Ap     2.319084    82Ap     2.341131  
      44App    2.355319    83Ap     2.363979    45App    2.374921  
      84Ap     2.379666    46App    2.442744    85Ap     2.454244  
      47App    2.468620    86Ap     2.476013    87Ap     2.483781  
      48App    2.495744    49App    2.546622    88Ap     2.582344  
      89Ap     2.605055    90Ap     2.638396    91Ap     2.662969  
      92Ap     2.694469    50App    2.739251    93Ap     2.751787  
      51App    2.796223    94Ap     2.899304    95Ap     3.793903  
      96Ap     3.886761    97Ap     4.967826    98Ap     5.373859  
      99Ap     5.844158  

    Final Occupation by Irrep:
             Ap   App 
    DOCC [    18,    5 ]
    SOCC [     2,    1 ]

  @DF-UKS Final Energy: -1194.50909705837830

   => Energetics <=

    Nuclear Repulsion Energy =            170.3929396686404800
    One-Electron Energy =               -1998.5417537117757547
    Two-Electron Energy =                 692.8888777067295450
    DFT Exchange-Correlation Energy =     -59.4496540547374934
    Empirical Dispersion Energy =           0.0000000000000000
    VV10 Nonlocal Energy =                  0.2004933327647312
    Total Energy =                      -1194.5090970583783019

  UHF NO Occupations:
  HONO-2 :    6App 1.0000000
  HONO-1 :   19 Ap 1.0000000
  HONO-0 :   20 Ap 1.0000000
  LUNO+0 :   21 Ap 0.0063387
  LUNO+1 :    7App 0.0023033
  LUNO+2 :   22 Ap 0.0009517
  LUNO+3 :    8App 0.0008651


Computation Completed


Properties will be evaluated at   0.000000,   0.000000,   0.000000 [a0]

Properties computed using the SCF density matrix

  Nuclear Dipole Moment: [e a0]
     X:     0.0000      Y:    -0.0000      Z:     0.0000

  Electronic Dipole Moment: [e a0]
     X:     0.4205      Y:    -0.4530      Z:     0.0000

  Dipole Moment: [e a0]
     X:     0.4205      Y:    -0.4530      Z:     0.0000     Total:     0.6181

  Dipole Moment: [D]
     X:     1.0688      Y:    -1.1515      Z:     0.0000     Total:     1.5711


*** tstop() called on c2-18.compute.lan at Wed Feb  3 12:14:17 2021
Module time:
	user time   =     470.20 seconds =       7.84 minutes
	system time =       2.62 seconds =       0.04 minutes
	total time  =        473 seconds =       7.88 minutes
Total time:
	user time   =     470.20 seconds =       7.84 minutes
	system time =       2.62 seconds =       0.04 minutes
	total time  =        473 seconds =       7.88 minutes

  //>>>>>>>>>>>>>>>>>>>>>>>>>>>>>>>>>>>//
  //    Loading displacement 2 of 7    //
  //<<<<<<<<<<<<<<<<<<<<<<<<<<<<<<<<<<<//

*** tstart() called on c2-18.compute.lan
*** at Wed Feb  3 12:14:17 2021


  //>>>>>>>>>>>>>>>>>>>>>>>>>>>>>>>>>>>//
  //       Guess SCF, 3-21G Basis      //
  //<<<<<<<<<<<<<<<<<<<<<<<<<<<<<<<<<<<//

   => Loading Basis Set <=

    Name: 3-21G
    Role: ORBITAL
    Keyword: BASIS
    atoms 1-3 entry S          line   198 file /apps/gb/PSI4/1.4.0/share/psi4/basis/3-21g.gbs 


         ---------------------------------------------------------
                           SCF Castup computation                  
         ---------------------------------------------------------
                                   SCF
               by Justin Turney, Rob Parrish, Andy Simmonett
                          and Daniel G. A. Smith
                              UKS Reference
                        1 Threads,   9536 MiB Core
         ---------------------------------------------------------

  ==> Geometry <==

    Molecular point group: cs
    Full point group: Cs

    Geometry (in Angstrom), charge = -1, multiplicity = 4:

       Center              X                  Y                   Z               Mass       
    ------------   -----------------  -----------------  -----------------  -----------------
         S            0.605839838422     0.316650793508     0.000000000000    31.972071174400
         S            0.606366824283    -1.683349206492     0.000000000000    31.972071174400
         S           -1.212206662705     1.366698412984     0.000000000000    31.972071174400

  Running in cs symmetry.

  Rotational constants: A =      0.75486  B =      0.08359  C =      0.07526 [cm^-1]
  Rotational constants: A =  22630.03950  B =   2506.05749  C =   2256.20469 [MHz]
  Nuclear repulsion =  170.408352754223131

  Charge       = -1
  Multiplicity = 4
  Electrons    = 49
  Nalpha       = 26
  Nbeta        = 23

  ==> Algorithm <==

  SCF Algorithm Type is DF.
  DIIS enabled.
  MOM disabled.
  Fractional occupation disabled.
  Guess Type is SAD.
  Energy threshold   = 1.00e-08
  Density threshold  = 1.00e-08
  Integral threshold = 0.00e+00

  ==> Primary Basis <==

  Basis Set: 3-21G
    Blend: 3-21G
    Number of shells: 21
    Number of basis function: 39
    Number of Cartesian functions: 39
    Spherical Harmonics?: false
    Max angular momentum: 1

  ==> DFT Potential <==

   => Composite Functional: WB97M-V <= 

    wB97M-V Hyb-GGA Exchange-Correlation Functional

    N. Mardirossian and M. Head-Gordon, J. Chem. Phys. 144, 214110 (2016)

    Deriv               =              1
    GGA                 =           TRUE
    Meta                =           TRUE

    Exchange Hybrid     =           TRUE
    MP2 Hybrid          =          FALSE

   => Exchange-Correlation Functionals <=

    1.0000   wB97M-V exchange-correlation functional

   => Exact (HF) Exchange <=

    0.8500            HF,LR [omega = 0.3000]
    0.1500               HF 

   => VV10 Non-Local Parameters <=

    VV10 B              =     6.0000E+00
    VV10 C              =     1.0000E-02

   => Molecular Quadrature <=

    Radial Scheme          =       TREUTLER
    Pruning Scheme         =           NONE
    Nuclear Scheme         =       TREUTLER

    BS radius alpha        =              1
    Pruning alpha          =              1
    Radial Points          =             99
    Spherical Points       =            590
    Total Points           =         156221
    Total Blocks           =           1217
    Max Points             =            256
    Max Functions          =             36
    Weights Tolerance      =       1.00E-15

   => Loading Basis Set <=

    Name: (3-21G AUX)
    Role: JKFIT
    Keyword: DF_BASIS_SCF
    atoms 1-3 entry S          line   908 file /apps/gb/PSI4/1.4.0/share/psi4/basis/def2-svp-jkfit.gbs 

  ==> Pre-Iterations <==

   -------------------------------------------------------
    Irrep   Nso     Nmo     Nalpha   Nbeta   Ndocc  Nsocc
   -------------------------------------------------------
     A'        30      30       0       0       0       0
     A"         9       9       0       0       0       0
   -------------------------------------------------------
    Total      39      39      26      23      23       3
   -------------------------------------------------------

  ==> Integral Setup <==

  ==> DiskDFJK: Density-Fitted J/K Matrices <==

    J tasked:                  Yes
    K tasked:                  Yes
    wK tasked:                 Yes
    Omega:               3.000E-01
    OpenMP threads:              1
    Integrals threads:           1
    Memory [MiB]:             6832
    Algorithm:                Core
    Integral Cache:           NONE
    Schwarz Cutoff:          1E-12
    Fitting Condition:       1E-10

   => Auxiliary Basis Set <=

  Basis Set: (3-21G AUX)
    Blend: DEF2-SVP-JKFIT
    Number of shells: 114
    Number of basis function: 465
    Number of Cartesian functions: 465
    Spherical Harmonics?: false
    Max angular momentum: 4

  Cached 100.0% of DFT collocation blocks in 0.313 [GiB].

  Minimum eigenvalue in the overlap matrix is 3.0587087255E-02.
  Using Symmetric Orthogonalization.

  SCF Guess: Superposition of Atomic Densities via on-the-fly atomic UHF.

  ==> Iterations <==

                           Total Energy        Delta E     RMS |[F,P]|

   @DF-UKS iter SAD: -1188.17887024789457   -1.18818e+03   0.00000e+00 
   @DF-UKS iter   1: -1188.43356902217920   -2.54699e-01   9.73129e-03 DIIS
   @DF-UKS iter   2: -1188.46724101772566   -3.36720e-02   7.19816e-03 DIIS
   @DF-UKS iter   3: -1188.49741818205257   -3.01772e-02   2.29715e-03 DIIS
   @DF-UKS iter   4: -1188.50127646614101   -3.85828e-03   8.58855e-04 DIIS
   @DF-UKS iter   5: -1188.50203331454941   -7.56848e-04   3.16725e-04 DIIS
   @DF-UKS iter   6: -1188.50244052225571   -4.07208e-04   2.28567e-04 DIIS
   @DF-UKS iter   7: -1188.50284988991871   -4.09368e-04   2.28645e-04 DIIS
   @DF-UKS iter   8: -1188.50262283769325    2.27052e-04   2.19146e-04 DIIS
   @DF-UKS iter   9: -1188.50160325776892    1.01958e-03   1.70534e-04 DIIS
   @DF-UKS iter  10: -1188.50154725320363    5.60046e-05   9.87630e-05 DIIS
   @DF-UKS iter  11: -1188.50160795032366   -6.06971e-05   4.84998e-05 DIIS
   @DF-UKS iter  12: -1188.50161986212879   -1.19118e-05   2.65434e-05 DIIS
   @DF-UKS iter  13: -1188.50162640583312   -6.54370e-06   8.42126e-06 DIIS
   @DF-UKS iter  14: -1188.50162699730686   -5.91474e-07   4.73703e-06 DIIS
   @DF-UKS iter  15: -1188.50162704486024   -4.75534e-08   1.89413e-06 DIIS
   @DF-UKS iter  16: -1188.50162706018682   -1.53266e-08   3.29651e-07 DIIS
   @DF-UKS iter  17: -1188.50162706034644   -1.59616e-10   1.22971e-07 DIIS
   @DF-UKS iter  18: -1188.50162706039396   -4.75211e-11   5.03613e-08 DIIS
   @DF-UKS iter  19: -1188.50162706040351   -9.54969e-12   2.92771e-08 DIIS
   @DF-UKS iter  20: -1188.50162706040624   -2.72848e-12   1.04424e-08 DIIS
   @DF-UKS iter  21: -1188.50162706040737   -1.13687e-12   6.59616e-09 DIIS
  Energy and wave function converged.


  ==> Post-Iterations <==

   @Spin Contamination Metric:   1.394356163E-02
   @S^2 Expected:                3.750000000E+00
   @S^2 Observed:                3.763943562E+00
   @S   Expected:                1.500000000E+00
   @S   Observed:                1.500000000E+00

    Orbital Energies [Eh]
    ---------------------

    Alpha Occupied:                                                       

       1Ap   -88.404045     2Ap   -88.362147     3Ap   -88.346119  
       4Ap    -7.910617     5Ap    -7.865192     6Ap    -7.846843  
       7Ap    -5.826118     8Ap    -5.822264     1App   -5.820841  
       9Ap    -5.785352    10Ap    -5.776589     2App   -5.772943  
      11Ap    -5.767864     3App   -5.759684    12Ap    -5.755454  
      13Ap    -0.764907    14Ap    -0.635785    15Ap    -0.508266  
      16Ap    -0.311890    17Ap    -0.285503     4App   -0.275039  
       5App   -0.171794    18Ap    -0.167468    19Ap    -0.152249  
       6App   -0.105787    20Ap    -0.003242  

    Alpha Virtual:                                                        

      21Ap     0.269411    22Ap     0.657146    23Ap     0.727055  
      24Ap     0.743636    25Ap     0.750704     7App    0.753549  
      26Ap     0.784094     8App    0.802425    27Ap     0.823392  
       9App    0.824634    28Ap     0.850126    29Ap     0.890902  
      30Ap     0.919744  

    Beta Occupied:                                                        

       1Ap   -88.397242     2Ap   -88.356822     3Ap   -88.338395  
       4Ap    -7.903518     5Ap    -7.860090     6Ap    -7.839347  
       7Ap    -5.822618     8Ap    -5.808886     1App   -5.807435  
       9Ap    -5.776322    10Ap    -5.767058     2App   -5.765906  
      11Ap    -5.752438     3App   -5.747202    12Ap    -5.746569  
      13Ap    -0.731136    14Ap    -0.596062    15Ap    -0.451961  
      16Ap    -0.259696    17Ap    -0.241667     4App   -0.232105  
       5App   -0.108382    18Ap    -0.100286  

    Beta Virtual:                                                         

      19Ap     0.086061     6App    0.138267    20Ap     0.245496  
      21Ap     0.313915    22Ap     0.678190    23Ap     0.750390  
      24Ap     0.764565    25Ap     0.775312     7App    0.778041  
      26Ap     0.804931     8App    0.824877    27Ap     0.848577  
       9App    0.852508    28Ap     0.867802    29Ap     0.915676  
      30Ap     0.938001  

    Final Occupation by Irrep:
             Ap   App 
    DOCC [    18,    5 ]
    SOCC [     2,    1 ]

  @DF-UKS Final Energy: -1188.50162706040737

   => Energetics <=

    Nuclear Repulsion Energy =            170.4083527542231309
    One-Electron Energy =               -1993.0001577131029080
    Two-Electron Energy =                 693.3234389737409629
    DFT Exchange-Correlation Energy =     -59.4343565914894469
    Empirical Dispersion Energy =           0.0000000000000000
    VV10 Nonlocal Energy =                  0.2010955162208928
    Total Energy =                      -1188.5016270604071451

  UHF NO Occupations:
  HONO-2 :   19 Ap 1.0000000
  HONO-1 :    6App 1.0000000
  HONO-0 :   20 Ap 1.0000000
  LUNO+0 :   21 Ap 0.0055800
  LUNO+1 :    7App 0.0006217
  LUNO+2 :   22 Ap 0.0002816
  LUNO+3 :    8App 0.0002577


Computation Completed

  //>>>>>>>>>>>>>>>>>>>>>>>>>>>>>>>>>>>//
  //              WB97M-V              //
  //<<<<<<<<<<<<<<<<<<<<<<<<<<<<<<<<<<<//

   => Loading Basis Set <=

    Name: AUG-CC-PVTZ
    Role: ORBITAL
    Keyword: BASIS
    atoms 1-3 entry S          line   906 file /apps/gb/PSI4/1.4.0/share/psi4/basis/aug-cc-pvtz.gbs 


         ---------------------------------------------------------
                                   SCF
               by Justin Turney, Rob Parrish, Andy Simmonett
                          and Daniel G. A. Smith
                              UKS Reference
                        1 Threads,   9536 MiB Core
         ---------------------------------------------------------

  ==> Geometry <==

    Molecular point group: cs
    Full point group: Cs

    Geometry (in Angstrom), charge = -1, multiplicity = 4:

       Center              X                  Y                   Z               Mass       
    ------------   -----------------  -----------------  -----------------  -----------------
         S            0.605839838422     0.316650793508     0.000000000000    31.972071174400
         S            0.606366824283    -1.683349206492     0.000000000000    31.972071174400
         S           -1.212206662705     1.366698412984     0.000000000000    31.972071174400

  Running in cs symmetry.

  Rotational constants: A =      0.75486  B =      0.08359  C =      0.07526 [cm^-1]
  Rotational constants: A =  22630.03950  B =   2506.05749  C =   2256.20469 [MHz]
  Nuclear repulsion =  170.408352754223131

  Charge       = -1
  Multiplicity = 4
  Electrons    = 49
  Nalpha       = 26
  Nbeta        = 23

  ==> Algorithm <==

  SCF Algorithm Type is DF.
  DIIS enabled.
  MOM disabled.
  Fractional occupation disabled.
  Guess Type is SAD.
  Energy threshold   = 1.00e-08
  Density threshold  = 1.00e-08
  Integral threshold = 0.00e+00

  ==> Primary Basis <==

  Basis Set: AUG-CC-PVTZ
    Blend: AUG-CC-PVTZ
    Number of shells: 48
    Number of basis function: 150
    Number of Cartesian functions: 177
    Spherical Harmonics?: true
    Max angular momentum: 3

  ==> DFT Potential <==

   => Composite Functional: WB97M-V <= 

    wB97M-V Hyb-GGA Exchange-Correlation Functional

    N. Mardirossian and M. Head-Gordon, J. Chem. Phys. 144, 214110 (2016)

    Deriv               =              1
    GGA                 =           TRUE
    Meta                =           TRUE

    Exchange Hybrid     =           TRUE
    MP2 Hybrid          =          FALSE

   => Exchange-Correlation Functionals <=

    1.0000   wB97M-V exchange-correlation functional

   => Exact (HF) Exchange <=

    0.8500            HF,LR [omega = 0.3000]
    0.1500               HF 

   => VV10 Non-Local Parameters <=

    VV10 B              =     6.0000E+00
    VV10 C              =     1.0000E-02

   => Molecular Quadrature <=

    Radial Scheme          =       TREUTLER
    Pruning Scheme         =           NONE
    Nuclear Scheme         =       TREUTLER

    BS radius alpha        =              1
    Pruning alpha          =              1
    Radial Points          =             99
    Spherical Points       =            590
    Total Points           =         169930
    Total Blocks           =           1395
    Max Points             =            256
    Max Functions          =            150
    Weights Tolerance      =       1.00E-15

   => Loading Basis Set <=

    Name: (AUG-CC-PVTZ AUX)
    Role: JKFIT
    Keyword: DF_BASIS_SCF
    atoms 1-3 entry S          line   730 file /apps/gb/PSI4/1.4.0/share/psi4/basis/aug-cc-pvtz-jkfit.gbs 


  Computing basis projection from 3-21G to AUG-CC-PVTZ

  ==> Pre-Iterations <==

   -------------------------------------------------------
    Irrep   Nso     Nmo     Nalpha   Nbeta   Ndocc  Nsocc
   -------------------------------------------------------
     A'        99      99       0       0       0       0
     A"        51      51       0       0       0       0
   -------------------------------------------------------
    Total     150     150      26      23      23       3
   -------------------------------------------------------

  ==> Integral Setup <==

  ==> DiskDFJK: Density-Fitted J/K Matrices <==

    J tasked:                  Yes
    K tasked:                  Yes
    wK tasked:                 Yes
    Omega:               3.000E-01
    OpenMP threads:              1
    Integrals threads:           1
    Memory [MiB]:             5488
    Algorithm:                Core
    Integral Cache:           NONE
    Schwarz Cutoff:          1E-12
    Fitting Condition:       1E-10

   => Auxiliary Basis Set <=

  Basis Set: (AUG-CC-PVTZ AUX)
    Blend: AUG-CC-PVTZ-JKFIT
    Number of shells: 126
    Number of basis function: 438
    Number of Cartesian functions: 540
    Spherical Harmonics?: true
    Max angular momentum: 4

  Cached 100.0% of DFT collocation blocks in 1.625 [GiB].

  Minimum eigenvalue in the overlap matrix is 2.2907929932E-04.
  Using Symmetric Orthogonalization.

  SCF Guess: Orbitals guess was supplied from a previous computation.

  ==> Iterations <==

                           Total Energy        Delta E     RMS |[F,P]|

   @DF-UKS iter   0: -1194.04138667991720   -1.19404e+03   4.00965e-02 
   @DF-UKS iter   1: -1194.49335734567626   -4.51971e-01   1.63118e-03 DIIS
   @DF-UKS iter   2: -1194.50289932058740   -9.54197e-03   8.80519e-04 DIIS
   @DF-UKS iter   3: -1194.50767176481077   -4.77244e-03   3.74732e-04 DIIS
   @DF-UKS iter   4: -1194.50885776942232   -1.18600e-03   9.71359e-05 DIIS
   @DF-UKS iter   5: -1194.50901176463208   -1.53995e-04   5.18955e-05 DIIS
   @DF-UKS iter   6: -1194.50906841200185   -5.66474e-05   2.81913e-05 DIIS
   @DF-UKS iter   7: -1194.50909424782003   -2.58358e-05   1.63621e-05 DIIS
   @DF-UKS iter   8: -1194.50911643608015   -2.21883e-05   1.18448e-05 DIIS
   @DF-UKS iter   9: -1194.50913373730805   -1.73012e-05   1.23021e-05 DIIS
   @DF-UKS iter  10: -1194.50913034750556    3.38980e-06   1.20716e-05 DIIS
   @DF-UKS iter  11: -1194.50909705009462    3.32974e-05   9.05117e-06 DIIS
   @DF-UKS iter  12: -1194.50908335953477    1.36906e-05   5.98745e-06 DIIS
   @DF-UKS iter  13: -1194.50908339196167   -3.24269e-08   3.77303e-06 DIIS
   @DF-UKS iter  14: -1194.50908586145488   -2.46949e-06   2.35384e-06 DIIS
   @DF-UKS iter  15: -1194.50908656569027   -7.04235e-07   1.80870e-06 DIIS
   @DF-UKS iter  16: -1194.50908706483870   -4.99148e-07   9.14069e-07 DIIS
   @DF-UKS iter  17: -1194.50908717179436   -1.06956e-07   4.34723e-07 DIIS
   @DF-UKS iter  18: -1194.50908719044673   -1.86524e-08   2.63339e-07 DIIS
   @DF-UKS iter  19: -1194.50908719301242   -2.56568e-09   8.41088e-08 DIIS
   @DF-UKS iter  20: -1194.50908719342078   -4.08363e-10   3.95647e-08 DIIS
   @DF-UKS iter  21: -1194.50908719343079   -1.00044e-11   1.78571e-08 DIIS
   @DF-UKS iter  22: -1194.50908719345102   -2.02363e-11   8.48414e-09 DIIS
  Energy and wave function converged.


  ==> Post-Iterations <==

   @Spin Contamination Metric:   2.307755294E-02
   @S^2 Expected:                3.750000000E+00
   @S^2 Observed:                3.773077553E+00
   @S   Expected:                1.500000000E+00
   @S   Observed:                1.500000000E+00

    Orbital Energies [Eh]
    ---------------------

    Alpha Occupied:                                                       

       1Ap   -89.086585     2Ap   -89.045449     3Ap   -89.020596  
       4Ap    -7.995935     5Ap    -7.957125     6Ap    -7.932306  
       1App   -5.904071     7Ap    -5.904055     8Ap    -5.903820  
       9Ap    -5.870233    10Ap    -5.864018     2App   -5.861695  
      11Ap    -5.846306     3App   -5.839769    12Ap    -5.836373  
      13Ap    -0.766369    14Ap    -0.647916    15Ap    -0.534600  
      16Ap    -0.331135    17Ap    -0.303686     4App   -0.291272  
       5App   -0.192884    18Ap    -0.191979    19Ap    -0.172643  
       6App   -0.123735    20Ap    -0.015355  

    Alpha Virtual:                                                        

      21Ap     0.147617    22Ap     0.168444    23Ap     0.189017  
       7App    0.195205    24Ap     0.205016    25Ap     0.213535  
       8App    0.213614     9App    0.220003    26Ap     0.229943  
      27Ap     0.244973    28Ap     0.250786    29Ap     0.317116  
      30Ap     0.335188    10App    0.355709    31Ap     0.374840  
      11App    0.377406    32Ap     0.405842    33Ap     0.428668  
      34Ap     0.432417    12App    0.446487    35Ap     0.448434  
      13App    0.453000    14App    0.491351    36Ap     0.493515  
      37Ap     0.503529    38Ap     0.521059    15App    0.538893  
      39Ap     0.560702    16App    0.620309    40Ap     0.642061  
      17App    0.692345    41Ap     0.699496    42Ap     0.706343  
      43Ap     0.711872    44Ap     0.729008    18App    0.732456  
      19App    0.732648    45Ap     0.738303    46Ap     0.749460  
      20App    0.750687    47Ap     0.789041    21App    0.798710  
      48Ap     0.801632    49Ap     0.810929    22App    0.825165  
      50Ap     0.830559    51Ap     0.840942    52Ap     0.863119  
      23App    0.869901    53Ap     0.909049    24App    0.909737  
      25App    0.925162    54Ap     0.961982    26App    0.965614  
      55Ap     0.970751    27App    0.983117    56Ap     1.006988  
      57Ap     1.025495    58Ap     1.030993    59Ap     1.106748  
      28App    1.121470    29App    1.156477    60Ap     1.186095  
      30App    1.217022    61Ap     1.223153    31App    1.293795  
      62Ap     1.297527    63Ap     1.302872    64Ap     1.338184  
      65Ap     1.358581    32App    1.381365    33App    1.386843  
      66Ap     1.480946    67Ap     1.489253    68Ap     1.558476  
      69Ap     1.660823    70Ap     1.950266    34App    1.969142  
      35App    1.984887    71Ap     1.995668    72Ap     2.028375  
      36App    2.036641    37App    2.040048    73Ap     2.047905  
      74Ap     2.073604    38App    2.113055    75Ap     2.126426  
      76Ap     2.140985    77Ap     2.166832    39App    2.177692  
      78Ap     2.183535    40App    2.188178    41App    2.207918  
      79Ap     2.215020    42App    2.236621    80Ap     2.244801  
      43App    2.259383    81Ap     2.288926    82Ap     2.303171  
      44App    2.319717    83Ap     2.330331    45App    2.338508  
      84Ap     2.344333    46App    2.413677    85Ap     2.419268  
      47App    2.432750    86Ap     2.438608    87Ap     2.451843  
      48App    2.464736    49App    2.512646    88Ap     2.550774  
      89Ap     2.570960    90Ap     2.615258    91Ap     2.635517  
      92Ap     2.664911    50App    2.706543    93Ap     2.729126  
      51App    2.769977    94Ap     2.871762    95Ap     3.765108  
      96Ap     3.871012    97Ap     4.945401    98Ap     5.353597  
      99Ap     5.822298  

    Beta Occupied:                                                        

       1Ap   -89.079951     2Ap   -89.040283     3Ap   -89.014022  
       4Ap    -7.988645     5Ap    -7.951883     6Ap    -7.925583  
       7Ap    -5.900564     8Ap    -5.891447     1App   -5.889735  
       9Ap    -5.860843    10Ap    -5.855173     2App   -5.854461  
      11Ap    -5.832746     3App   -5.828856    12Ap    -5.828840  
      13Ap    -0.734846    14Ap    -0.611126    15Ap    -0.477539  
      16Ap    -0.284578    17Ap    -0.259249     4App   -0.246924  
       5App   -0.137370    18Ap    -0.124833  

    Beta Virtual:                                                         

      19Ap     0.058454     6App    0.115800    20Ap     0.143347  
      21Ap     0.152978    22Ap     0.185065     7App    0.196052  
      23Ap     0.196335    24Ap     0.207893     8App    0.213299  
       9App    0.220384    25Ap     0.227513    26Ap     0.238251  
      27Ap     0.248293    28Ap     0.280511    29Ap     0.319991  
      30Ap     0.340873    10App    0.360523    31Ap     0.378793  
      11App    0.389214    32Ap     0.420262    33Ap     0.434471  
      34Ap     0.442638    12App    0.457578    35Ap     0.458087  
      13App    0.461188    14App    0.497403    36Ap     0.499834  
      37Ap     0.503824    38Ap     0.526008    15App    0.541385  
      39Ap     0.568290    16App    0.631207    40Ap     0.649482  
      17App    0.702008    41Ap     0.707438    42Ap     0.715146  
      43Ap     0.724144    44Ap     0.737789    18App    0.742896  
      19App    0.746528    45Ap     0.748464    20App    0.763754  
      46Ap     0.765386    47Ap     0.798828    48Ap     0.816249  
      21App    0.822216    49Ap     0.830954    22App    0.842736  
      50Ap     0.851716    51Ap     0.868826    52Ap     0.881664  
      23App    0.889537    24App    0.925746    53Ap     0.933093  
      25App    0.950273    54Ap     0.970552    26App    0.972278  
      55Ap     0.980446    27App    0.992704    56Ap     1.031609  
      57Ap     1.040423    58Ap     1.046291    59Ap     1.119771  
      28App    1.130597    29App    1.169186    60Ap     1.195677  
      30App    1.227477    61Ap     1.230470    31App    1.308573  
      62Ap     1.314870    63Ap     1.318321    64Ap     1.354356  
      65Ap     1.376416    32App    1.396766    33App    1.399418  
      66Ap     1.506952    67Ap     1.508685    68Ap     1.585047  
      69Ap     1.697607    70Ap     1.995149    34App    2.010536  
      35App    2.022923    71Ap     2.031055    36App    2.061563  
      72Ap     2.072281    73Ap     2.074956    37App    2.080417  
      74Ap     2.111319    38App    2.151849    75Ap     2.154777  
      76Ap     2.179694    77Ap     2.191232    39App    2.206245  
      78Ap     2.208493    40App    2.218126    41App    2.234127  
      79Ap     2.240724    42App    2.270332    80Ap     2.280191  
      43App    2.302224    81Ap     2.319012    82Ap     2.341161  
      44App    2.355355    83Ap     2.363962    45App    2.374892  
      84Ap     2.379630    46App    2.442715    85Ap     2.454264  
      47App    2.468777    86Ap     2.476102    87Ap     2.483861  
      48App    2.495764    49App    2.546754    88Ap     2.582446  
      89Ap     2.605560    90Ap     2.638511    91Ap     2.663066  
      92Ap     2.694492    50App    2.739515    93Ap     2.751857  
      51App    2.796271    94Ap     2.899577    95Ap     3.794437  
      96Ap     3.886888    97Ap     4.968574    98Ap     5.373991  
      99Ap     5.844049  

    Final Occupation by Irrep:
             Ap   App 
    DOCC [    18,    5 ]
    SOCC [     2,    1 ]

  @DF-UKS Final Energy: -1194.50908719345102

   => Energetics <=

    Nuclear Repulsion Energy =            170.4083527542231309
    One-Electron Energy =               -1998.5720519079693531
    Two-Electron Energy =                 692.9038627026902759
    DFT Exchange-Correlation Energy =     -59.4497433709296814
    Empirical Dispersion Energy =           0.0000000000000000
    VV10 Nonlocal Energy =                  0.2004926285343816
    Total Energy =                      -1194.5090871934510233

  UHF NO Occupations:
  HONO-2 :   19 Ap 1.0000000
  HONO-1 :   20 Ap 1.0000000
  HONO-0 :    6App 1.0000000
  LUNO+0 :   21 Ap 0.0063435
  LUNO+1 :    7App 0.0023007
  LUNO+2 :   22 Ap 0.0009532
  LUNO+3 :    8App 0.0008663


Computation Completed


Properties will be evaluated at   0.000000,   0.000000,   0.000000 [a0]

Properties computed using the SCF density matrix

  Nuclear Dipole Moment: [e a0]
     X:     0.0000      Y:     0.0000      Z:     0.0000

  Electronic Dipole Moment: [e a0]
     X:     0.4191      Y:    -0.4512      Z:     0.0000

  Dipole Moment: [e a0]
     X:     0.4191      Y:    -0.4512      Z:     0.0000     Total:     0.6158

  Dipole Moment: [D]
     X:     1.0652      Y:    -1.1469      Z:     0.0000     Total:     1.5653


*** tstop() called on c2-18.compute.lan at Wed Feb  3 12:22:06 2021
Module time:
	user time   =     466.80 seconds =       7.78 minutes
	system time =       2.02 seconds =       0.03 minutes
	total time  =        469 seconds =       7.82 minutes
Total time:
	user time   =     937.01 seconds =      15.62 minutes
	system time =       4.64 seconds =       0.08 minutes
	total time  =        942 seconds =      15.70 minutes

  //>>>>>>>>>>>>>>>>>>>>>>>>>>>>>>>>>>>//
  //    Loading displacement 3 of 7    //
  //<<<<<<<<<<<<<<<<<<<<<<<<<<<<<<<<<<<//

*** tstart() called on c2-18.compute.lan
*** at Wed Feb  3 12:22:06 2021


  //>>>>>>>>>>>>>>>>>>>>>>>>>>>>>>>>>>>//
  //       Guess SCF, 3-21G Basis      //
  //<<<<<<<<<<<<<<<<<<<<<<<<<<<<<<<<<<<//

   => Loading Basis Set <=

    Name: 3-21G
    Role: ORBITAL
    Keyword: BASIS
    atoms 1-3 entry S          line   198 file /apps/gb/PSI4/1.4.0/share/psi4/basis/3-21g.gbs 


         ---------------------------------------------------------
                           SCF Castup computation                  
         ---------------------------------------------------------
                                   SCF
               by Justin Turney, Rob Parrish, Andy Simmonett
                          and Daniel G. A. Smith
                              UKS Reference
                        1 Threads,   9536 MiB Core
         ---------------------------------------------------------

  ==> Geometry <==

    Molecular point group: cs
    Full point group: Cs

    Geometry (in Angstrom), charge = -1, multiplicity = 4:

       Center              X                  Y                   Z               Mass       
    ------------   -----------------  -----------------  -----------------  -----------------
         S            0.606595726876     0.316682539825     0.000000000000    31.972071174400
         S            0.606068741015    -1.683317460175     0.000000000000    31.972071174400
         S           -1.212664467891     1.366634920350     0.000000000000    31.972071174400

  Running in cs symmetry.

  Rotational constants: A =      0.75340  B =      0.08359  C =      0.07524 [cm^-1]
  Rotational constants: A =  22586.29300  B =   2506.03684  C =   2255.75236 [MHz]
  Nuclear repulsion =  170.377527481310580

  Charge       = -1
  Multiplicity = 4
  Electrons    = 49
  Nalpha       = 26
  Nbeta        = 23

  ==> Algorithm <==

  SCF Algorithm Type is DF.
  DIIS enabled.
  MOM disabled.
  Fractional occupation disabled.
  Guess Type is SAD.
  Energy threshold   = 1.00e-08
  Density threshold  = 1.00e-08
  Integral threshold = 0.00e+00

  ==> Primary Basis <==

  Basis Set: 3-21G
    Blend: 3-21G
    Number of shells: 21
    Number of basis function: 39
    Number of Cartesian functions: 39
    Spherical Harmonics?: false
    Max angular momentum: 1

  ==> DFT Potential <==

   => Composite Functional: WB97M-V <= 

    wB97M-V Hyb-GGA Exchange-Correlation Functional

    N. Mardirossian and M. Head-Gordon, J. Chem. Phys. 144, 214110 (2016)

    Deriv               =              1
    GGA                 =           TRUE
    Meta                =           TRUE

    Exchange Hybrid     =           TRUE
    MP2 Hybrid          =          FALSE

   => Exchange-Correlation Functionals <=

    1.0000   wB97M-V exchange-correlation functional

   => Exact (HF) Exchange <=

    0.8500            HF,LR [omega = 0.3000]
    0.1500               HF 

   => VV10 Non-Local Parameters <=

    VV10 B              =     6.0000E+00
    VV10 C              =     1.0000E-02

   => Molecular Quadrature <=

    Radial Scheme          =       TREUTLER
    Pruning Scheme         =           NONE
    Nuclear Scheme         =       TREUTLER

    BS radius alpha        =              1
    Pruning alpha          =              1
    Radial Points          =             99
    Spherical Points       =            590
    Total Points           =         156223
    Total Blocks           =           1220
    Max Points             =            256
    Max Functions          =             36
    Weights Tolerance      =       1.00E-15

   => Loading Basis Set <=

    Name: (3-21G AUX)
    Role: JKFIT
    Keyword: DF_BASIS_SCF
    atoms 1-3 entry S          line   908 file /apps/gb/PSI4/1.4.0/share/psi4/basis/def2-svp-jkfit.gbs 

  ==> Pre-Iterations <==

   -------------------------------------------------------
    Irrep   Nso     Nmo     Nalpha   Nbeta   Ndocc  Nsocc
   -------------------------------------------------------
     A'        30      30       0       0       0       0
     A"         9       9       0       0       0       0
   -------------------------------------------------------
    Total      39      39      26      23      23       3
   -------------------------------------------------------

  ==> Integral Setup <==

  ==> DiskDFJK: Density-Fitted J/K Matrices <==

    J tasked:                  Yes
    K tasked:                  Yes
    wK tasked:                 Yes
    Omega:               3.000E-01
    OpenMP threads:              1
    Integrals threads:           1
    Memory [MiB]:             6832
    Algorithm:                Core
    Integral Cache:           NONE
    Schwarz Cutoff:          1E-12
    Fitting Condition:       1E-10

   => Auxiliary Basis Set <=

  Basis Set: (3-21G AUX)
    Blend: DEF2-SVP-JKFIT
    Number of shells: 114
    Number of basis function: 465
    Number of Cartesian functions: 465
    Spherical Harmonics?: false
    Max angular momentum: 4

  Cached 100.0% of DFT collocation blocks in 0.313 [GiB].

  Minimum eigenvalue in the overlap matrix is 3.0596718991E-02.
  Using Symmetric Orthogonalization.

  SCF Guess: Superposition of Atomic Densities via on-the-fly atomic UHF.

  ==> Iterations <==

                           Total Energy        Delta E     RMS |[F,P]|

   @DF-UKS iter SAD: -1188.17776944461048   -1.18818e+03   0.00000e+00 
   @DF-UKS iter   1: -1188.43357396141118   -2.55805e-01   9.73717e-03 DIIS
   @DF-UKS iter   2: -1188.46703138715702   -3.34574e-02   7.22996e-03 DIIS
   @DF-UKS iter   3: -1188.49751064995780   -3.04793e-02   2.30915e-03 DIIS
   @DF-UKS iter   4: -1188.50141570971527   -3.90506e-03   8.61162e-04 DIIS
   @DF-UKS iter   5: -1188.50217951725199   -7.63808e-04   3.18400e-04 DIIS
   @DF-UKS iter   6: -1188.50259359405618   -4.14077e-04   2.30691e-04 DIIS
   @DF-UKS iter   7: -1188.50300988968911   -4.16296e-04   2.30886e-04 DIIS
   @DF-UKS iter   8: -1188.50277518859957    2.34701e-04   2.21134e-04 DIIS
   @DF-UKS iter   9: -1188.50174276069561    1.03243e-03   1.72218e-04 DIIS
   @DF-UKS iter  10: -1188.50168678310661    5.59776e-05   9.93275e-05 DIIS
   @DF-UKS iter  11: -1188.50174790025994   -6.11172e-05   4.86771e-05 DIIS
   @DF-UKS iter  12: -1188.50175947005300   -1.15698e-05   2.67474e-05 DIIS
   @DF-UKS iter  13: -1188.50176600197119   -6.53192e-06   8.44686e-06 DIIS
   @DF-UKS iter  14: -1188.50176658463238   -5.82661e-07   4.84457e-06 DIIS
   @DF-UKS iter  15: -1188.50176663345633   -4.88239e-08   1.94695e-06 DIIS
   @DF-UKS iter  16: -1188.50176664959417   -1.61378e-08   3.35915e-07 DIIS
   @DF-UKS iter  17: -1188.50176664975606   -1.61890e-10   1.21251e-07 DIIS
   @DF-UKS iter  18: -1188.50176664980290   -4.68390e-11   5.07874e-08 DIIS
   @DF-UKS iter  19: -1188.50176664981336   -1.04592e-11   3.00095e-08 DIIS
   @DF-UKS iter  20: -1188.50176664981677   -3.41061e-12   1.06123e-08 DIIS
   @DF-UKS iter  21: -1188.50176664981700   -2.27374e-13   6.64082e-09 DIIS
  Energy and wave function converged.


  ==> Post-Iterations <==

   @Spin Contamination Metric:   1.391650652E-02
   @S^2 Expected:                3.750000000E+00
   @S^2 Observed:                3.763916507E+00
   @S   Expected:                1.500000000E+00
   @S   Observed:                1.500000000E+00

    Orbital Energies [Eh]
    ---------------------

    Alpha Occupied:                                                       

       1Ap   -88.403992     2Ap   -88.362246     3Ap   -88.346098  
       4Ap    -7.910544     5Ap    -7.865287     6Ap    -7.846800  
       7Ap    -5.826044     8Ap    -5.822201     1App   -5.820765  
       9Ap    -5.785441    10Ap    -5.776694     2App   -5.773021  
      11Ap    -5.767825     3App   -5.759666    12Ap    -5.755400  
      13Ap    -0.764801    14Ap    -0.635626    15Ap    -0.508320  
      16Ap    -0.311836    17Ap    -0.285426     4App   -0.274944  
       5App   -0.171786    18Ap    -0.167505    19Ap    -0.152251  
       6App   -0.105826    20Ap    -0.003385  

    Alpha Virtual:                                                        

      21Ap     0.269297    22Ap     0.657139    23Ap     0.726979  
      24Ap     0.743642    25Ap     0.750684     7App    0.753569  
      26Ap     0.784121     8App    0.802417    27Ap     0.823428  
       9App    0.824632    28Ap     0.850067    29Ap     0.890957  
      30Ap     0.919972  

    Beta Occupied:                                                        

       1Ap   -88.397191     2Ap   -88.356934     3Ap   -88.338362  
       4Ap    -7.903449     5Ap    -7.860198     6Ap    -7.839292  
       7Ap    -5.822537     8Ap    -5.808822     1App   -5.807370  
       9Ap    -5.776445    10Ap    -5.767165     2App   -5.766007  
      11Ap    -5.752367     3App   -5.747159    12Ap    -5.746517  
      13Ap    -0.731070    14Ap    -0.595871    15Ap    -0.452022  
      16Ap    -0.259663    17Ap    -0.241572     4App   -0.232049  
       5App   -0.108349    18Ap    -0.100272  

    Beta Virtual:                                                         

      19Ap     0.086024     6App    0.138234    20Ap     0.245442  
      21Ap     0.313731    22Ap     0.678190    23Ap     0.750357  
      24Ap     0.764563    25Ap     0.775262     7App    0.778048  
      26Ap     0.804952     8App    0.824859    27Ap     0.848617  
       9App    0.852524    28Ap     0.867768    29Ap     0.915716  
      30Ap     0.938259  

    Final Occupation by Irrep:
             Ap   App 
    DOCC [    18,    5 ]
    SOCC [     2,    1 ]

  @DF-UKS Final Energy: -1188.50176664981700

   => Energetics <=

    Nuclear Repulsion Energy =            170.3775274813105796
    One-Electron Energy =               -1992.9396496932645277
    Two-Electron Energy =                 693.2934062550597218
    DFT Exchange-Correlation Energy =     -59.4341477647010450
    Empirical Dispersion Energy =           0.0000000000000000
    VV10 Nonlocal Energy =                  0.2010970717784349
    Total Energy =                      -1188.5017666498167728

  UHF NO Occupations:
  HONO-2 :   19 Ap 1.0000000
  HONO-1 :   20 Ap 1.0000000
  HONO-0 :    6App 1.0000000
  LUNO+0 :   21 Ap 0.0055669
  LUNO+1 :    7App 0.0006233
  LUNO+2 :   22 Ap 0.0002816
  LUNO+3 :    8App 0.0002564


Computation Completed

  //>>>>>>>>>>>>>>>>>>>>>>>>>>>>>>>>>>>//
  //              WB97M-V              //
  //<<<<<<<<<<<<<<<<<<<<<<<<<<<<<<<<<<<//

   => Loading Basis Set <=

    Name: AUG-CC-PVTZ
    Role: ORBITAL
    Keyword: BASIS
    atoms 1-3 entry S          line   906 file /apps/gb/PSI4/1.4.0/share/psi4/basis/aug-cc-pvtz.gbs 


         ---------------------------------------------------------
                                   SCF
               by Justin Turney, Rob Parrish, Andy Simmonett
                          and Daniel G. A. Smith
                              UKS Reference
                        1 Threads,   9536 MiB Core
         ---------------------------------------------------------

  ==> Geometry <==

    Molecular point group: cs
    Full point group: Cs

    Geometry (in Angstrom), charge = -1, multiplicity = 4:

       Center              X                  Y                   Z               Mass       
    ------------   -----------------  -----------------  -----------------  -----------------
         S            0.606595726876     0.316682539825     0.000000000000    31.972071174400
         S            0.606068741015    -1.683317460175     0.000000000000    31.972071174400
         S           -1.212664467891     1.366634920350     0.000000000000    31.972071174400

  Running in cs symmetry.

  Rotational constants: A =      0.75340  B =      0.08359  C =      0.07524 [cm^-1]
  Rotational constants: A =  22586.29300  B =   2506.03684  C =   2255.75236 [MHz]
  Nuclear repulsion =  170.377527481310580

  Charge       = -1
  Multiplicity = 4
  Electrons    = 49
  Nalpha       = 26
  Nbeta        = 23

  ==> Algorithm <==

  SCF Algorithm Type is DF.
  DIIS enabled.
  MOM disabled.
  Fractional occupation disabled.
  Guess Type is SAD.
  Energy threshold   = 1.00e-08
  Density threshold  = 1.00e-08
  Integral threshold = 0.00e+00

  ==> Primary Basis <==

  Basis Set: AUG-CC-PVTZ
    Blend: AUG-CC-PVTZ
    Number of shells: 48
    Number of basis function: 150
    Number of Cartesian functions: 177
    Spherical Harmonics?: true
    Max angular momentum: 3

  ==> DFT Potential <==

   => Composite Functional: WB97M-V <= 

    wB97M-V Hyb-GGA Exchange-Correlation Functional

    N. Mardirossian and M. Head-Gordon, J. Chem. Phys. 144, 214110 (2016)

    Deriv               =              1
    GGA                 =           TRUE
    Meta                =           TRUE

    Exchange Hybrid     =           TRUE
    MP2 Hybrid          =          FALSE

   => Exchange-Correlation Functionals <=

    1.0000   wB97M-V exchange-correlation functional

   => Exact (HF) Exchange <=

    0.8500            HF,LR [omega = 0.3000]
    0.1500               HF 

   => VV10 Non-Local Parameters <=

    VV10 B              =     6.0000E+00
    VV10 C              =     1.0000E-02

   => Molecular Quadrature <=

    Radial Scheme          =       TREUTLER
    Pruning Scheme         =           NONE
    Nuclear Scheme         =       TREUTLER

    BS radius alpha        =              1
    Pruning alpha          =              1
    Radial Points          =             99
    Spherical Points       =            590
    Total Points           =         169928
    Total Blocks           =           1392
    Max Points             =            256
    Max Functions          =            150
    Weights Tolerance      =       1.00E-15

   => Loading Basis Set <=

    Name: (AUG-CC-PVTZ AUX)
    Role: JKFIT
    Keyword: DF_BASIS_SCF
    atoms 1-3 entry S          line   730 file /apps/gb/PSI4/1.4.0/share/psi4/basis/aug-cc-pvtz-jkfit.gbs 


  Computing basis projection from 3-21G to AUG-CC-PVTZ

  ==> Pre-Iterations <==

   -------------------------------------------------------
    Irrep   Nso     Nmo     Nalpha   Nbeta   Ndocc  Nsocc
   -------------------------------------------------------
     A'        99      99       0       0       0       0
     A"        51      51       0       0       0       0
   -------------------------------------------------------
    Total     150     150      26      23      23       3
   -------------------------------------------------------

  ==> Integral Setup <==

  ==> DiskDFJK: Density-Fitted J/K Matrices <==

    J tasked:                  Yes
    K tasked:                  Yes
    wK tasked:                 Yes
    Omega:               3.000E-01
    OpenMP threads:              1
    Integrals threads:           1
    Memory [MiB]:             5488
    Algorithm:                Core
    Integral Cache:           NONE
    Schwarz Cutoff:          1E-12
    Fitting Condition:       1E-10

   => Auxiliary Basis Set <=

  Basis Set: (AUG-CC-PVTZ AUX)
    Blend: AUG-CC-PVTZ-JKFIT
    Number of shells: 126
    Number of basis function: 438
    Number of Cartesian functions: 540
    Spherical Harmonics?: true
    Max angular momentum: 4

  Cached 100.0% of DFT collocation blocks in 1.625 [GiB].

  Minimum eigenvalue in the overlap matrix is 2.2923091700E-04.
  Using Symmetric Orthogonalization.

  SCF Guess: Orbitals guess was supplied from a previous computation.

  ==> Iterations <==

                           Total Energy        Delta E     RMS |[F,P]|

   @DF-UKS iter   0: -1194.04153865653257   -1.19404e+03   4.00949e-02 
   @DF-UKS iter   1: -1194.49338997791619   -4.51851e-01   1.63078e-03 DIIS
   @DF-UKS iter   2: -1194.50292921200935   -9.53923e-03   8.79678e-04 DIIS
   @DF-UKS iter   3: -1194.50769149378493   -4.76228e-03   3.74558e-04 DIIS
   @DF-UKS iter   4: -1194.50887693335358   -1.18544e-03   9.72651e-05 DIIS
   @DF-UKS iter   5: -1194.50903121737520   -1.54284e-04   5.19213e-05 DIIS
   @DF-UKS iter   6: -1194.50908810892247   -5.68915e-05   2.82405e-05 DIIS
   @DF-UKS iter   7: -1194.50911414398706   -2.60351e-05   1.64275e-05 DIIS
   @DF-UKS iter   8: -1194.50913657478441   -2.24308e-05   1.19109e-05 DIIS
   @DF-UKS iter   9: -1194.50915406461854   -1.74898e-05   1.23757e-05 DIIS
   @DF-UKS iter  10: -1194.50915048763954    3.57698e-06   1.21333e-05 DIIS
   @DF-UKS iter  11: -1194.50911685538540    3.36323e-05   9.08663e-06 DIIS
   @DF-UKS iter  12: -1194.50910312564520    1.37297e-05   5.99917e-06 DIIS
   @DF-UKS iter  13: -1194.50910319450031   -6.88551e-08   3.77415e-06 DIIS
   @DF-UKS iter  14: -1194.50910566469292   -2.47019e-06   2.35321e-06 DIIS
   @DF-UKS iter  15: -1194.50910636404183   -6.99349e-07   1.80897e-06 DIIS
   @DF-UKS iter  16: -1194.50910686290945   -4.98868e-07   9.11541e-07 DIIS
   @DF-UKS iter  17: -1194.50910696955498   -1.06646e-07   4.32126e-07 DIIS
   @DF-UKS iter  18: -1194.50910698802363   -1.84687e-08   2.61933e-07 DIIS
   @DF-UKS iter  19: -1194.50910699056203   -2.53840e-09   8.38249e-08 DIIS
   @DF-UKS iter  20: -1194.50910699096630   -4.04270e-10   3.94792e-08 DIIS
   @DF-UKS iter  21: -1194.50910699097403   -7.73070e-12   1.78769e-08 DIIS
   @DF-UKS iter  22: -1194.50910699099632   -2.22826e-11   8.46688e-09 DIIS
  Energy and wave function converged.


  ==> Post-Iterations <==

   @Spin Contamination Metric:   2.305790977E-02
   @S^2 Expected:                3.750000000E+00
   @S^2 Observed:                3.773057910E+00
   @S   Expected:                1.500000000E+00
   @S   Observed:                1.500000000E+00

    Orbital Energies [Eh]
    ---------------------

    Alpha Occupied:                                                       

       1Ap   -89.086532     2Ap   -89.045557     3Ap   -89.020522  
       4Ap    -7.995882     5Ap    -7.957225     6Ap    -7.932229  
       1App   -5.904016     7Ap    -5.904004     8Ap    -5.903772  
       9Ap    -5.870330    10Ap    -5.864126     2App   -5.861784  
      11Ap    -5.846236     3App   -5.839706    12Ap    -5.836282  
      13Ap    -0.766277    14Ap    -0.647792    15Ap    -0.534652  
      16Ap    -0.331073    17Ap    -0.303645     4App   -0.291204  
       5App   -0.192846    18Ap    -0.192039    19Ap    -0.172580  
       6App   -0.123781    20Ap    -0.015484  

    Alpha Virtual:                                                        

      21Ap     0.147586    22Ap     0.168437    23Ap     0.189003  
       7App    0.195203    24Ap     0.205025    25Ap     0.213526  
       8App    0.213617     9App    0.219998    26Ap     0.229917  
      27Ap     0.244987    28Ap     0.250713    29Ap     0.317136  
      30Ap     0.335175    10App    0.355727    31Ap     0.374891  
      11App    0.377406    32Ap     0.405878    33Ap     0.428613  
      34Ap     0.432404    12App    0.446431    35Ap     0.448414  
      13App    0.453038    14App    0.491341    36Ap     0.493533  
      37Ap     0.503502    38Ap     0.521025    15App    0.538849  
      39Ap     0.560683    16App    0.620325    40Ap     0.642107  
      17App    0.692403    41Ap     0.699532    42Ap     0.706348  
      43Ap     0.711927    44Ap     0.728991    18App    0.732473  
      19App    0.732584    45Ap     0.738304    46Ap     0.749529  
      20App    0.750670    47Ap     0.789004    21App    0.798689  
      48Ap     0.801603    49Ap     0.810946    22App    0.825232  
      50Ap     0.830557    51Ap     0.840920    52Ap     0.863064  
      23App    0.869889    53Ap     0.909049    24App    0.909769  
      25App    0.925049    54Ap     0.961944    26App    0.965631  
      55Ap     0.970726    27App    0.983022    56Ap     1.006696  
      57Ap     1.025424    58Ap     1.030987    59Ap     1.106667  
      28App    1.121514    29App    1.156391    60Ap     1.186004  
      30App    1.216862    61Ap     1.222972    31App    1.293722  
      62Ap     1.297441    63Ap     1.302812    64Ap     1.338036  
      65Ap     1.358554    32App    1.381263    33App    1.386676  
      66Ap     1.480691    67Ap     1.489076    68Ap     1.558384  
      69Ap     1.660789    70Ap     1.950324    34App    1.969138  
      35App    1.984861    71Ap     1.995679    72Ap     2.028313  
      36App    2.036639    37App    2.039977    73Ap     2.047801  
      74Ap     2.073789    38App    2.113071    75Ap     2.126303  
      76Ap     2.141016    77Ap     2.166915    39App    2.177752  
      78Ap     2.183659    40App    2.188250    41App    2.207932  
      79Ap     2.215185    42App    2.236702    80Ap     2.244889  
      43App    2.259403    81Ap     2.289045    82Ap     2.303115  
      44App    2.319656    83Ap     2.330354    45App    2.338527  
      84Ap     2.344371    46App    2.413710    85Ap     2.419208  
      47App    2.432368    86Ap     2.438441    87Ap     2.451666  
      48App    2.464724    49App    2.512423    88Ap     2.550453  
      89Ap     2.569963    90Ap     2.615060    91Ap     2.635339  
      92Ap     2.664801    50App    2.705943    93Ap     2.729072  
      51App    2.769944    94Ap     2.871218    95Ap     3.764027  
      96Ap     3.870767    97Ap     4.943901    98Ap     5.353342  
      99Ap     5.822529  

    Beta Occupied:                                                        

       1Ap   -89.079900     2Ap   -89.040399     3Ap   -89.013938  
       4Ap    -7.988596     5Ap    -7.951992     6Ap    -7.925495  
       7Ap    -5.900507     8Ap    -5.891399     1App   -5.889689  
       9Ap    -5.860963    10Ap    -5.855281     2App   -5.854567  
      11Ap    -5.832646     3App   -5.828771    12Ap    -5.828751  
      13Ap    -0.734777    14Ap    -0.610967    15Ap    -0.477595  
      16Ap    -0.284559    17Ap    -0.259150     4App   -0.246889  
       5App   -0.137294    18Ap    -0.124791  

    Beta Virtual:                                                         

      19Ap     0.058433     6App    0.115753    20Ap     0.143313  
      21Ap     0.152978    22Ap     0.185048     7App    0.196049  
      23Ap     0.196318    24Ap     0.207928     8App    0.213319  
       9App    0.220377    25Ap     0.227491    26Ap     0.238242  
      27Ap     0.248281    28Ap     0.280403    29Ap     0.320002  
      30Ap     0.340844    10App    0.360541    31Ap     0.378847  
      11App    0.389207    32Ap     0.420287    33Ap     0.434437  
      34Ap     0.442614    12App    0.457529    35Ap     0.458057  
      13App    0.461220    14App    0.497391    36Ap     0.499866  
      37Ap     0.503791    38Ap     0.525979    15App    0.541341  
      39Ap     0.568260    16App    0.631219    40Ap     0.649521  
      17App    0.702067    41Ap     0.707426    42Ap     0.715140  
      43Ap     0.724214    44Ap     0.737805    18App    0.742902  
      19App    0.746469    45Ap     0.748461    20App    0.763743  
      46Ap     0.765454    47Ap     0.798785    48Ap     0.816231  
      21App    0.822187    49Ap     0.830975    22App    0.842819  
      50Ap     0.851754    51Ap     0.868779    52Ap     0.881579  
      23App    0.889534    24App    0.925767    53Ap     0.933098  
      25App    0.950156    54Ap     0.970544    26App    0.972307  
      55Ap     0.980388    27App    0.992599    56Ap     1.031376  
      57Ap     1.040364    58Ap     1.046219    59Ap     1.119687  
      28App    1.130635    29App    1.169104    60Ap     1.195588  
      30App    1.227312    61Ap     1.230286    31App    1.308476  
      62Ap     1.314805    63Ap     1.318207    64Ap     1.354217  
      65Ap     1.376374    32App    1.396662    33App    1.399241  
      66Ap     1.506753    67Ap     1.508437    68Ap     1.584941  
      69Ap     1.697554    70Ap     1.995183    34App    2.010520  
      35App    2.022868    71Ap     2.031044    36App    2.061551  
      72Ap     2.072179    73Ap     2.074858    37App    2.080440  
      74Ap     2.111535    38App    2.151842    75Ap     2.154684  
      76Ap     2.179778    77Ap     2.191324    39App    2.206306  
      78Ap     2.208567    40App    2.218169    41App    2.234171  
      79Ap     2.240926    42App    2.270414    80Ap     2.280288  
      43App    2.302233    81Ap     2.319156    82Ap     2.341102  
      44App    2.355284    83Ap     2.363997    45App    2.374951  
[...]
   @DF-UKS iter 271: -1194.53455116371651   -1.58234e-04   2.96084e-05 DIIS
   @DF-UKS iter 272: -1194.53439293003999    1.58234e-04   3.34049e-05 DIIS
   @DF-UKS iter 273: -1194.53455116371697   -1.58234e-04   2.96084e-05 DIIS
   @DF-UKS iter 274: -1194.53439293004067    1.58234e-04   3.34049e-05 DIIS
   @DF-UKS iter 275: -1194.53455116371788   -1.58234e-04   2.96084e-05 DIIS
   @DF-UKS iter 276: -1194.53439293003930    1.58234e-04   3.34049e-05 DIIS
   @DF-UKS iter 277: -1194.53455116371856   -1.58234e-04   2.96084e-05 DIIS
   @DF-UKS iter 278: -1194.53439293004067    1.58234e-04   3.34049e-05 DIIS
   @DF-UKS iter 279: -1194.53455116371629   -1.58234e-04   2.96084e-05 DIIS
   @DF-UKS iter 280: -1194.53439293003976    1.58234e-04   3.34049e-05 DIIS
   @DF-UKS iter 281: -1194.53455116371561   -1.58234e-04   2.96084e-05 DIIS
   @DF-UKS iter 282: -1194.53439293003976    1.58234e-04   3.34049e-05 DIIS
   @DF-UKS iter 283: -1194.53455116371856   -1.58234e-04   2.96084e-05 DIIS
   @DF-UKS iter 284: -1194.53439293003930    1.58234e-04   3.34049e-05 DIIS
   @DF-UKS iter 285: -1194.53455116371651   -1.58234e-04   2.96084e-05 DIIS
   @DF-UKS iter 286: -1194.53439293004021    1.58234e-04   3.34049e-05 DIIS
   @DF-UKS iter 287: -1194.53455116371788   -1.58234e-04   2.96084e-05 DIIS
   @DF-UKS iter 288: -1194.53439293004112    1.58234e-04   3.34049e-05 DIIS
   @DF-UKS iter 289: -1194.53455116371651   -1.58234e-04   2.96084e-05 DIIS
   @DF-UKS iter 290: -1194.53439293004021    1.58234e-04   3.34049e-05 DIIS
   @DF-UKS iter 291: -1194.53455116371629   -1.58234e-04   2.96084e-05 DIIS
   @DF-UKS iter 292: -1194.53439293003999    1.58234e-04   3.34049e-05 DIIS
   @DF-UKS iter 293: -1194.53455116371788   -1.58234e-04   2.96084e-05 DIIS
   @DF-UKS iter 294: -1194.53439293004067    1.58234e-04   3.34049e-05 DIIS
   @DF-UKS iter 295: -1194.53455116371674   -1.58234e-04   2.96084e-05 DIIS
   @DF-UKS iter 296: -1194.53439293003976    1.58234e-04   3.34049e-05 DIIS
   @DF-UKS iter 297: -1194.53455116371742   -1.58234e-04   2.96084e-05 DIIS
   @DF-UKS iter 298: -1194.53439293004021    1.58234e-04   3.34049e-05 DIIS
   @DF-UKS iter 299: -1194.53455116371765   -1.58234e-04   2.96084e-05 DIIS
   @DF-UKS iter 300: -1194.53439293003839    1.58234e-04   3.34049e-05 DIIS
   @DF-UKS iter 301: -1194.53455116371742   -1.58234e-04   2.96084e-05 DIIS
   @DF-UKS iter 302: -1194.53439293004021    1.58234e-04   3.34049e-05 DIIS
   @DF-UKS iter 303: -1194.53455116371856   -1.58234e-04   2.96084e-05 DIIS
   @DF-UKS iter 304: -1194.53439293003953    1.58234e-04   3.34049e-05 DIIS
   @DF-UKS iter 305: -1194.53455116371606   -1.58234e-04   2.96084e-05 DIIS
   @DF-UKS iter 306: -1194.53439293003930    1.58234e-04   3.34049e-05 DIIS
   @DF-UKS iter 307: -1194.53455116371765   -1.58234e-04   2.96084e-05 DIIS
   @DF-UKS iter 308: -1194.53439293004067    1.58234e-04   3.34049e-05 DIIS
   @DF-UKS iter 309: -1194.53455116371788   -1.58234e-04   2.96084e-05 DIIS
   @DF-UKS iter 310: -1194.53439293003999    1.58234e-04   3.34049e-05 DIIS
   @DF-UKS iter 311: -1194.53455116371606   -1.58234e-04   2.96084e-05 DIIS
   @DF-UKS iter 312: -1194.53439293004067    1.58234e-04   3.34049e-05 DIIS
   @DF-UKS iter 313: -1194.53455116371833   -1.58234e-04   2.96084e-05 DIIS
   @DF-UKS iter 314: -1194.53439293003976    1.58234e-04   3.34049e-05 DIIS
   @DF-UKS iter 315: -1194.53455116371561   -1.58234e-04   2.96084e-05 DIIS
   @DF-UKS iter 316: -1194.53439293003930    1.58234e-04   3.34049e-05 DIIS
   @DF-UKS iter 317: -1194.53455116371742   -1.58234e-04   2.96084e-05 DIIS
   @DF-UKS iter 318: -1194.53439293004044    1.58234e-04   3.34049e-05 DIIS
   @DF-UKS iter 319: -1194.53455116371765   -1.58234e-04   2.96084e-05 DIIS
   @DF-UKS iter 320: -1194.53439293004112    1.58234e-04   3.34049e-05 DIIS
   @DF-UKS iter 321: -1194.53455116371742   -1.58234e-04   2.96084e-05 DIIS
   @DF-UKS iter 322: -1194.53439293004067    1.58234e-04   3.34049e-05 DIIS
   @DF-UKS iter 323: -1194.53455116371742   -1.58234e-04   2.96084e-05 DIIS
   @DF-UKS iter 324: -1194.53439293004044    1.58234e-04   3.34049e-05 DIIS
   @DF-UKS iter 325: -1194.53455116371833   -1.58234e-04   2.96084e-05 DIIS
   @DF-UKS iter 326: -1194.53439293003930    1.58234e-04   3.34049e-05 DIIS
   @DF-UKS iter 327: -1194.53455116371651   -1.58234e-04   2.96084e-05 DIIS
   @DF-UKS iter 328: -1194.53439293003953    1.58234e-04   3.34049e-05 DIIS
   @DF-UKS iter 329: -1194.53455116371651   -1.58234e-04   2.96084e-05 DIIS
   @DF-UKS iter 330: -1194.53439293004067    1.58234e-04   3.34049e-05 DIIS
   @DF-UKS iter 331: -1194.53455116371697   -1.58234e-04   2.96084e-05 DIIS
   @DF-UKS iter 332: -1194.53439293003885    1.58234e-04   3.34049e-05 DIIS
   @DF-UKS iter 333: -1194.53455116371561   -1.58234e-04   2.96084e-05 DIIS
   @DF-UKS iter 334: -1194.53439293004067    1.58234e-04   3.34049e-05 DIIS
   @DF-UKS iter 335: -1194.53455116371651   -1.58234e-04   2.96084e-05 DIIS
   @DF-UKS iter 336: -1194.53439293003976    1.58234e-04   3.34049e-05 DIIS
   @DF-UKS iter 337: -1194.53455116371742   -1.58234e-04   2.96084e-05 DIIS
   @DF-UKS iter 338: -1194.53439293003976    1.58234e-04   3.34049e-05 DIIS
   @DF-UKS iter 339: -1194.53455116371697   -1.58234e-04   2.96084e-05 DIIS
   @DF-UKS iter 340: -1194.53439293003930    1.58234e-04   3.34049e-05 DIIS
   @DF-UKS iter 341: -1194.53455116371697   -1.58234e-04   2.96084e-05 DIIS
   @DF-UKS iter 342: -1194.53439293003908    1.58234e-04   3.34049e-05 DIIS
   @DF-UKS iter 343: -1194.53455116371788   -1.58234e-04   2.96084e-05 DIIS
   @DF-UKS iter 344: -1194.53439293004044    1.58234e-04   3.34049e-05 DIIS
   @DF-UKS iter 345: -1194.53455116371651   -1.58234e-04   2.96084e-05 DIIS
   @DF-UKS iter 346: -1194.53439293003885    1.58234e-04   3.34049e-05 DIIS
   @DF-UKS iter 347: -1194.53455116371697   -1.58234e-04   2.96084e-05 DIIS
   @DF-UKS iter 348: -1194.53439293004067    1.58234e-04   3.34049e-05 DIIS
   @DF-UKS iter 349: -1194.53455116371788   -1.58234e-04   2.96084e-05 DIIS
   @DF-UKS iter 350: -1194.53439293003930    1.58234e-04   3.34049e-05 DIIS
   @DF-UKS iter 351: -1194.53455116371651   -1.58234e-04   2.96084e-05 DIIS
   @DF-UKS iter 352: -1194.53439293003999    1.58234e-04   3.34049e-05 DIIS
   @DF-UKS iter 353: -1194.53455116371674   -1.58234e-04   2.96084e-05 DIIS
   @DF-UKS iter 354: -1194.53439293003976    1.58234e-04   3.34049e-05 DIIS
   @DF-UKS iter 355: -1194.53455116371788   -1.58234e-04   2.96084e-05 DIIS
   @DF-UKS iter 356: -1194.53439293003930    1.58234e-04   3.34049e-05 DIIS
   @DF-UKS iter 357: -1194.53455116371811   -1.58234e-04   2.96084e-05 DIIS
   @DF-UKS iter 358: -1194.53439293004112    1.58234e-04   3.34049e-05 DIIS
   @DF-UKS iter 359: -1194.53455116371697   -1.58234e-04   2.96084e-05 DIIS
   @DF-UKS iter 360: -1194.53439293004044    1.58234e-04   3.34049e-05 DIIS
   @DF-UKS iter 361: -1194.53455116371833   -1.58234e-04   2.96084e-05 DIIS
   @DF-UKS iter 362: -1194.53439293003930    1.58234e-04   3.34049e-05 DIIS
   @DF-UKS iter 363: -1194.53455116371742   -1.58234e-04   2.96084e-05 DIIS
   @DF-UKS iter 364: -1194.53439293003976    1.58234e-04   3.34049e-05 DIIS
   @DF-UKS iter 365: -1194.53455116371811   -1.58234e-04   2.96084e-05 DIIS
   @DF-UKS iter 366: -1194.53439293003885    1.58234e-04   3.34049e-05 DIIS
   @DF-UKS iter 367: -1194.53455116371697   -1.58234e-04   2.96084e-05 DIIS
   @DF-UKS iter 368: -1194.53439293003748    1.58234e-04   3.34049e-05 DIIS
   @DF-UKS iter 369: -1194.53455116371788   -1.58234e-04   2.96084e-05 DIIS
   @DF-UKS iter 370: -1194.53439293004112    1.58234e-04   3.34049e-05 DIIS
   @DF-UKS iter 371: -1194.53455116371788   -1.58234e-04   2.96084e-05 DIIS
   @DF-UKS iter 372: -1194.53439293004044    1.58234e-04   3.34049e-05 DIIS
   @DF-UKS iter 373: -1194.53455116371697   -1.58234e-04   2.96084e-05 DIIS
   @DF-UKS iter 374: -1194.53439293004067    1.58234e-04   3.34049e-05 DIIS
   @DF-UKS iter 375: -1194.53455116371697   -1.58234e-04   2.96084e-05 DIIS
   @DF-UKS iter 376: -1194.53439293003930    1.58234e-04   3.34049e-05 DIIS
   @DF-UKS iter 377: -1194.53455116371674   -1.58234e-04   2.96084e-05 DIIS
   @DF-UKS iter 378: -1194.53439293004021    1.58234e-04   3.34049e-05 DIIS
   @DF-UKS iter 379: -1194.53455116371697   -1.58234e-04   2.96084e-05 DIIS
   @DF-UKS iter 380: -1194.53439293004089    1.58234e-04   3.34049e-05 DIIS
   @DF-UKS iter 381: -1194.53455116371697   -1.58234e-04   2.96084e-05 DIIS
   @DF-UKS iter 382: -1194.53439293004203    1.58234e-04   3.34049e-05 DIIS
   @DF-UKS iter 383: -1194.53455116371606   -1.58234e-04   2.96084e-05 DIIS
   @DF-UKS iter 384: -1194.53439293003999    1.58234e-04   3.34049e-05 DIIS
   @DF-UKS iter 385: -1194.53455116371765   -1.58234e-04   2.96084e-05 DIIS
   @DF-UKS iter 386: -1194.53439293003930    1.58234e-04   3.34049e-05 DIIS
   @DF-UKS iter 387: -1194.53455116371765   -1.58234e-04   2.96084e-05 DIIS
   @DF-UKS iter 388: -1194.53439293003930    1.58234e-04   3.34049e-05 DIIS
   @DF-UKS iter 389: -1194.53455116371606   -1.58234e-04   2.96084e-05 DIIS
   @DF-UKS iter 390: -1194.53439293004067    1.58234e-04   3.34049e-05 DIIS
   @DF-UKS iter 391: -1194.53455116371629   -1.58234e-04   2.96084e-05 DIIS
   @DF-UKS iter 392: -1194.53439293003885    1.58234e-04   3.34049e-05 DIIS
   @DF-UKS iter 393: -1194.53455116371697   -1.58234e-04   2.96084e-05 DIIS
   @DF-UKS iter 394: -1194.53439293004021    1.58234e-04   3.34049e-05 DIIS
   @DF-UKS iter 395: -1194.53455116371742   -1.58234e-04   2.96084e-05 DIIS
   @DF-UKS iter 396: -1194.53439293003885    1.58234e-04   3.34049e-05 DIIS
   @DF-UKS iter 397: -1194.53455116371697   -1.58234e-04   2.96084e-05 DIIS
   @DF-UKS iter 398: -1194.53439293004044    1.58234e-04   3.34049e-05 DIIS
   @DF-UKS iter 399: -1194.53455116371742   -1.58234e-04   2.96084e-05 DIIS
   @DF-UKS iter 400: -1194.53439293003930    1.58234e-04   3.34049e-05 DIIS
   @DF-UKS iter 401: -1194.53455116371856   -1.58234e-04   2.96084e-05 DIIS
   @DF-UKS iter 402: -1194.53439293004044    1.58234e-04   3.34049e-05 DIIS
   @DF-UKS iter 403: -1194.53455116371833   -1.58234e-04   2.96084e-05 DIIS
   @DF-UKS iter 404: -1194.53439293003999    1.58234e-04   3.34049e-05 DIIS
   @DF-UKS iter 405: -1194.53455116371765   -1.58234e-04   2.96084e-05 DIIS
   @DF-UKS iter 406: -1194.53439293004021    1.58234e-04   3.34049e-05 DIIS
   @DF-UKS iter 407: -1194.53455116371674   -1.58234e-04   2.96084e-05 DIIS
   @DF-UKS iter 408: -1194.53439293004067    1.58234e-04   3.34049e-05 DIIS
   @DF-UKS iter 409: -1194.53455116371720   -1.58234e-04   2.96084e-05 DIIS
   @DF-UKS iter 410: -1194.53439293003953    1.58234e-04   3.34049e-05 DIIS
   @DF-UKS iter 411: -1194.53455116371583   -1.58234e-04   2.96084e-05 DIIS
   @DF-UKS iter 412: -1194.53439293003976    1.58234e-04   3.34049e-05 DIIS
   @DF-UKS iter 413: -1194.53455116371606   -1.58234e-04   2.96084e-05 DIIS
   @DF-UKS iter 414: -1194.53439293004203    1.58234e-04   3.34049e-05 DIIS
   @DF-UKS iter 415: -1194.53455116371606   -1.58234e-04   2.96084e-05 DIIS
   @DF-UKS iter 416: -1194.53439293004067    1.58234e-04   3.34049e-05 DIIS
   @DF-UKS iter 417: -1194.53455116371606   -1.58234e-04   2.96084e-05 DIIS
   @DF-UKS iter 418: -1194.53439293003885    1.58234e-04   3.34049e-05 DIIS
   @DF-UKS iter 419: -1194.53455116371697   -1.58234e-04   2.96084e-05 DIIS
   @DF-UKS iter 420: -1194.53439293003976    1.58234e-04   3.34049e-05 DIIS
   @DF-UKS iter 421: -1194.53455116371674   -1.58234e-04   2.96084e-05 DIIS
   @DF-UKS iter 422: -1194.53439293003976    1.58234e-04   3.34049e-05 DIIS
   @DF-UKS iter 423: -1194.53455116371697   -1.58234e-04   2.96084e-05 DIIS
   @DF-UKS iter 424: -1194.53439293004021    1.58234e-04   3.34049e-05 DIIS
   @DF-UKS iter 425: -1194.53455116371629   -1.58234e-04   2.96084e-05 DIIS
   @DF-UKS iter 426: -1194.53439293003885    1.58234e-04   3.34049e-05 DIIS
   @DF-UKS iter 427: -1194.53455116371742   -1.58234e-04   2.96084e-05 DIIS
   @DF-UKS iter 428: -1194.53439293004067    1.58234e-04   3.34049e-05 DIIS
   @DF-UKS iter 429: -1194.53455116371697   -1.58234e-04   2.96084e-05 DIIS
   @DF-UKS iter 430: -1194.53439293004021    1.58234e-04   3.34049e-05 DIIS
   @DF-UKS iter 431: -1194.53455116371697   -1.58234e-04   2.96084e-05 DIIS
   @DF-UKS iter 432: -1194.53439293003976    1.58234e-04   3.34049e-05 DIIS
   @DF-UKS iter 433: -1194.53455116371697   -1.58234e-04   2.96084e-05 DIIS
   @DF-UKS iter 434: -1194.53439293003999    1.58234e-04   3.34049e-05 DIIS
   @DF-UKS iter 435: -1194.53455116371742   -1.58234e-04   2.96084e-05 DIIS
   @DF-UKS iter 436: -1194.53439293003930    1.58234e-04   3.34049e-05 DIIS
   @DF-UKS iter 437: -1194.53455116371697   -1.58234e-04   2.96084e-05 DIIS
   @DF-UKS iter 438: -1194.53439293003976    1.58234e-04   3.34049e-05 DIIS
   @DF-UKS iter 439: -1194.53455116371606   -1.58234e-04   2.96084e-05 DIIS
   @DF-UKS iter 440: -1194.53439293003930    1.58234e-04   3.34049e-05 DIIS
   @DF-UKS iter 441: -1194.53455116371651   -1.58234e-04   2.96084e-05 DIIS
   @DF-UKS iter 442: -1194.53439293004021    1.58234e-04   3.34049e-05 DIIS
   @DF-UKS iter 443: -1194.53455116371788   -1.58234e-04   2.96084e-05 DIIS
   @DF-UKS iter 444: -1194.53439293003930    1.58234e-04   3.34049e-05 DIIS
   @DF-UKS iter 445: -1194.53455116371720   -1.58234e-04   2.96084e-05 DIIS
   @DF-UKS iter 446: -1194.53439293004021    1.58234e-04   3.34049e-05 DIIS
   @DF-UKS iter 447: -1194.53455116371583   -1.58234e-04   2.96084e-05 DIIS
   @DF-UKS iter 448: -1194.53439293004021    1.58234e-04   3.34049e-05 DIIS
   @DF-UKS iter 449: -1194.53455116371833   -1.58234e-04   2.96084e-05 DIIS
   @DF-UKS iter 450: -1194.53439293004044    1.58234e-04   3.34049e-05 DIIS
   @DF-UKS iter 451: -1194.53455116371742   -1.58234e-04   2.96084e-05 DIIS
   @DF-UKS iter 452: -1194.53439293003976    1.58234e-04   3.34049e-05 DIIS
   @DF-UKS iter 453: -1194.53455116371720   -1.58234e-04   2.96084e-05 DIIS
   @DF-UKS iter 454: -1194.53439293004021    1.58234e-04   3.34049e-05 DIIS
   @DF-UKS iter 455: -1194.53455116371788   -1.58234e-04   2.96084e-05 DIIS
   @DF-UKS iter 456: -1194.53439293004021    1.58234e-04   3.34049e-05 DIIS
   @DF-UKS iter 457: -1194.53455116371606   -1.58234e-04   2.96084e-05 DIIS
   @DF-UKS iter 458: -1194.53439293004021    1.58234e-04   3.34049e-05 DIIS
   @DF-UKS iter 459: -1194.53455116371765   -1.58234e-04   2.96084e-05 DIIS
   @DF-UKS iter 460: -1194.53439293003976    1.58234e-04   3.34049e-05 DIIS
   @DF-UKS iter 461: -1194.53455116371629   -1.58234e-04   2.96084e-05 DIIS
   @DF-UKS iter 462: -1194.53439293003953    1.58234e-04   3.34049e-05 DIIS
   @DF-UKS iter 463: -1194.53455116371742   -1.58234e-04   2.96084e-05 DIIS
   @DF-UKS iter 464: -1194.53439293004112    1.58234e-04   3.34049e-05 DIIS
   @DF-UKS iter 465: -1194.53455116371765   -1.58234e-04   2.96084e-05 DIIS
   @DF-UKS iter 466: -1194.53439293003930    1.58234e-04   3.34049e-05 DIIS
   @DF-UKS iter 467: -1194.53455116371788   -1.58234e-04   2.96084e-05 DIIS
   @DF-UKS iter 468: -1194.53439293004021    1.58234e-04   3.34049e-05 DIIS
   @DF-UKS iter 469: -1194.53455116371879   -1.58234e-04   2.96084e-05 DIIS
   @DF-UKS iter 470: -1194.53439293003999    1.58234e-04   3.34049e-05 DIIS
   @DF-UKS iter 471: -1194.53455116371788   -1.58234e-04   2.96084e-05 DIIS
   @DF-UKS iter 472: -1194.53439293004021    1.58234e-04   3.34049e-05 DIIS
   @DF-UKS iter 473: -1194.53455116371765   -1.58234e-04   2.96084e-05 DIIS
   @DF-UKS iter 474: -1194.53439293003976    1.58234e-04   3.34049e-05 DIIS
   @DF-UKS iter 475: -1194.53455116371697   -1.58234e-04   2.96084e-05 DIIS
   @DF-UKS iter 476: -1194.53439293003999    1.58234e-04   3.34049e-05 DIIS
   @DF-UKS iter 477: -1194.53455116371697   -1.58234e-04   2.96084e-05 DIIS
   @DF-UKS iter 478: -1194.53439293003999    1.58234e-04   3.34049e-05 DIIS
   @DF-UKS iter 479: -1194.53455116371902   -1.58234e-04   2.96084e-05 DIIS
   @DF-UKS iter 480: -1194.53439293004067    1.58234e-04   3.34049e-05 DIIS
   @DF-UKS iter 481: -1194.53455116371742   -1.58234e-04   2.96084e-05 DIIS
   @DF-UKS iter 482: -1194.53439293003930    1.58234e-04   3.34049e-05 DIIS
   @DF-UKS iter 483: -1194.53455116371697   -1.58234e-04   2.96084e-05 DIIS
   @DF-UKS iter 484: -1194.53439293004021    1.58234e-04   3.34049e-05 DIIS
   @DF-UKS iter 485: -1194.53455116371833   -1.58234e-04   2.96084e-05 DIIS
   @DF-UKS iter 486: -1194.53439293003885    1.58234e-04   3.34049e-05 DIIS
   @DF-UKS iter 487: -1194.53455116371788   -1.58234e-04   2.96084e-05 DIIS
   @DF-UKS iter 488: -1194.53439293004044    1.58234e-04   3.34049e-05 DIIS
   @DF-UKS iter 489: -1194.53455116371742   -1.58234e-04   2.96084e-05 DIIS
   @DF-UKS iter 490: -1194.53439293004021    1.58234e-04   3.34049e-05 DIIS
   @DF-UKS iter 491: -1194.53455116371742   -1.58234e-04   2.96084e-05 DIIS
   @DF-UKS iter 492: -1194.53439293004089    1.58234e-04   3.34049e-05 DIIS
   @DF-UKS iter 493: -1194.53455116371674   -1.58234e-04   2.96084e-05 DIIS
   @DF-UKS iter 494: -1194.53439293004021    1.58234e-04   3.34049e-05 DIIS
   @DF-UKS iter 495: -1194.53455116371811   -1.58234e-04   2.96084e-05 DIIS
   @DF-UKS iter 496: -1194.53439293004067    1.58234e-04   3.34049e-05 DIIS
   @DF-UKS iter 497: -1194.53455116371697   -1.58234e-04   2.96084e-05 DIIS
   @DF-UKS iter 498: -1194.53439293003885    1.58234e-04   3.34049e-05 DIIS
   @DF-UKS iter 499: -1194.53455116371583   -1.58234e-04   2.96084e-05 DIIS
   @DF-UKS iter 500: -1194.53439293004089    1.58234e-04   3.34049e-05 DIIS

PsiException: Could not converge SCF iterations in 500 iterations.

  Failed to converge.

Traceback (most recent call last):
  File "/apps/gb/PSI4/1.4.0/bin/psi4", line 331, in <module>
    exec(content)
  File "<string>", line 37, in <module>
  File "/apps/gb/PSI4/1.4.0/lib//python3.6/site-packages/psi4/driver/driver.py", line 1071, in optimize
    G, wfn = gradient(lowername, return_wfn=True, molecule=moleculeclone, **kwargs)
  File "/apps/gb/PSI4/1.4.0/lib//python3.6/site-packages/psi4/driver/driver.py", line 726, in gradient
    **kwargs)
  File "/apps/gb/PSI4/1.4.0/lib//python3.6/site-packages/psi4/driver/driver.py", line 188, in _process_displacement
    derivative, wfn = derivfunc(method, return_wfn=True, molecule=clone, **kwargs)
  File "/apps/gb/PSI4/1.4.0/lib//python3.6/site-packages/psi4/driver/driver.py", line 568, in energy
    wfn = procedures['energy'][lowername](lowername, molecule=molecule, **kwargs)
  File "/apps/gb/PSI4/1.4.0/lib//python3.6/site-packages/psi4/driver/procrouting/proc.py", line 2077, in run_scf
    scf_wfn = scf_helper(name, post_scf=False, **kwargs)
  File "/apps/gb/PSI4/1.4.0/lib//python3.6/site-packages/psi4/driver/procrouting/proc.py", line 1395, in scf_helper
    e_scf = scf_wfn.compute_energy()
  File "/apps/gb/PSI4/1.4.0/lib//python3.6/site-packages/psi4/driver/procrouting/scf_proc/scf_iterator.py", line 93, in scf_compute_energy
    raise e
  File "/apps/gb/PSI4/1.4.0/lib//python3.6/site-packages/psi4/driver/procrouting/scf_proc/scf_iterator.py", line 86, in scf_compute_energy
    self.iterations()
  File "/apps/gb/PSI4/1.4.0/lib//python3.6/site-packages/psi4/driver/procrouting/scf_proc/scf_iterator.py", line 460, in scf_iterate
    raise SCFConvergenceError("""SCF iterations""", self.iteration_, self, Ediff, Dnorm)

psi4.driver.p4util.exceptions.SCFConvergenceError: Could not converge SCF iterations in 500 iterations.


Printing out the relevant lines from the Psithon --> Python processed input file:
    core.set_global_option("G_CONVERGENCE", "gau_verytight")
    core.set_global_option("DFT_SPHERICAL_POINTS", 590)
    core.set_global_option("DFT_RADIAL_POINTS", 99)
    core.set_global_option("MAXITER", 500)
    core.set_global_option("BASIS_GUESS", "true")
--> optimize('wb97m-v')
    frequencies('wb97m-v')

    Psi4 stopped on: Wednesday, 03 February 2021 03:27PM
    Psi4 wall time for execution: 3:20:57.80

*** Psi4 encountered an error. Buy a developer more coffee!
*** Resources and help at github.com/psi4/psi4.
