
    -----------------------------------------------------------------------
          Psi4: An Open-Source Ab Initio Electronic Structure Package
                               Psi4 1.4a2.dev191 

                         Git: Rev {master} 0ab5346 


    R. M. Parrish, L. A. Burns, D. G. A. Smith, A. C. Simmonett,
    A. E. DePrince III, E. G. Hohenstein, U. Bozkaya, A. Yu. Sokolov,
    R. Di Remigio, R. M. Richard, J. F. Gonthier, A. M. James,
    H. R. McAlexander, A. Kumar, M. Saitow, X. Wang, B. P. Pritchard,
    P. Verma, H. F. Schaefer III, K. Patkowski, R. A. King, E. F. Valeev,
    F. A. Evangelista, J. M. Turney, T. D. Crawford, and C. D. Sherrill,
    J. Chem. Theory Comput. 13(7) pp 3185--3197 (2017).
    (doi: 10.1021/acs.jctc.7b00174)


                         Additional Contributions by
    P. Kraus, H. Kruse, M. H. Lechner, M. C. Schieber, R. A. Shaw,
    A. Alenaizan, R. Galvelis, Z. L. Glick, S. Lehtola, and J. P. Misiewicz

    -----------------------------------------------------------------------


    Psi4 started on: Wednesday, 03 February 2021 12:06PM

    Process ID: 1690
    Host:       c2-18.compute.lan
    PSIDATADIR: /apps/gb/PSI4/1.4.0/share/psi4
    Memory:     500.0 MiB
    Threads:    1
    
  ==> Input File <==

--------------------------------------------------------------------------
memory 10 GB

molecule  {
-1 4
S
S 1 r1
S 1 r2 2 a1
r1 = 2.0
r2 = 2.1
a1 = 120.0
}

set {
reference uks
basis aug-cc-pvtz
g_convergence gau_verytight
dft_spherical_points 590
dft_radial_points 99
maxiter 500
basis_guess true
}

optimize('wb97x-d')
frequencies('wb97x-d')

--------------------------------------------------------------------------

  Memory set to   9.313 GiB by Python driver.
gradient() will perform analytic gradient computation.

*** tstart() called on c2-18.compute.lan
*** at Wed Feb  3 12:06:23 2021


  //>>>>>>>>>>>>>>>>>>>>>>>>>>>>>>>>>>>//
  //       Guess SCF, 3-21G Basis      //
  //<<<<<<<<<<<<<<<<<<<<<<<<<<<<<<<<<<<//

   => Loading Basis Set <=

    Name: 3-21G
    Role: ORBITAL
    Keyword: BASIS
    atoms 1-3 entry S          line   198 file /apps/gb/PSI4/1.4.0/share/psi4/basis/3-21g.gbs 


         ---------------------------------------------------------
                           SCF Castup computation                     => WB97X-D: Empirical Dispersion <=

    Chai and Head-Gordon Dispersion Correction
    Chai, J.-D.; Head-Gordon, M. (2010), J. Chem. Phys., 132: 6615-6620

        s6 =       1.000000


         ---------------------------------------------------------
                                   SCF
               by Justin Turney, Rob Parrish, Andy Simmonett
                          and Daniel G. A. Smith
                              UKS Reference
                        1 Threads,   9536 MiB Core
         ---------------------------------------------------------

  ==> Geometry <==

    Molecular point group: cs
    Full point group: Cs

    Geometry (in Angstrom), charge = -1, multiplicity = 4:

       Center              X                  Y                   Z               Mass       
    ------------   -----------------  -----------------  -----------------  -----------------
         S            0.606217782649     0.316666666667     0.000000000000    31.972071174400
         S            0.606217782649    -1.683333333333     0.000000000000    31.972071174400
         S           -1.212435565298     1.366666666667     0.000000000000    31.972071174400

  Running in cs symmetry.

  Rotational constants: A =      0.75413  B =      0.08359  C =      0.07525 [cm^-1]
  Rotational constants: A =  22608.14975  B =   2506.04720  C =   2255.97858 [MHz]
  Nuclear repulsion =  170.392939668640480

  Charge       = -1
  Multiplicity = 4
  Electrons    = 49
  Nalpha       = 26
  Nbeta        = 23

  ==> Algorithm <==

  SCF Algorithm Type is DF.
  DIIS enabled.
  MOM disabled.
  Fractional occupation disabled.
  Guess Type is SAD.
  Energy threshold   = 1.00e-08
  Density threshold  = 1.00e-08
  Integral threshold = 0.00e+00

  ==> Primary Basis <==

  Basis Set: 3-21G
    Blend: 3-21G
    Number of shells: 21
    Number of basis function: 39
    Number of Cartesian functions: 39
    Spherical Harmonics?: false
    Max angular momentum: 1

  ==> DFT Potential <==

   => Composite Functional: WB97X-D <= 

    wB97X-D Hyb-GGA Exchange-Correlation Functional

    J.-D. Chai and M. Head-Gordon, Phys. Chem. Chem. Phys. 10, 6615 (2008)

    Deriv               =              1
    GGA                 =           TRUE
    Meta                =          FALSE

    Exchange Hybrid     =           TRUE
    MP2 Hybrid          =          FALSE

   => Exchange-Correlation Functionals <=

    1.0000   wB97D range-separated functional

   => Exact (HF) Exchange <=

    0.7780            HF,LR [omega = 0.2000]
    0.2220               HF 

   => Molecular Quadrature <=

    Radial Scheme          =       TREUTLER
    Pruning Scheme         =           NONE
    Nuclear Scheme         =       TREUTLER

    BS radius alpha        =              1
    Pruning alpha          =              1
    Radial Points          =             99
    Spherical Points       =            590
    Total Points           =         156223
    Total Blocks           =           1217
    Max Points             =            256
    Max Functions          =             36
    Weights Tolerance      =       1.00E-15

   => Loading Basis Set <=

    Name: (3-21G AUX)
    Role: JKFIT
    Keyword: DF_BASIS_SCF
    atoms 1-3 entry S          line   908 file /apps/gb/PSI4/1.4.0/share/psi4/basis/def2-svp-jkfit.gbs 

  ==> Pre-Iterations <==

   -------------------------------------------------------
    Irrep   Nso     Nmo     Nalpha   Nbeta   Ndocc  Nsocc
   -------------------------------------------------------
     A'        30      30       0       0       0       0
     A"         9       9       0       0       0       0
   -------------------------------------------------------
    Total      39      39      26      23      23       3
   -------------------------------------------------------

  ==> Integral Setup <==

  ==> DiskDFJK: Density-Fitted J/K Matrices <==

    J tasked:                  Yes
    K tasked:                  Yes
    wK tasked:                 Yes
    Omega:               2.000E-01
    OpenMP threads:              1
    Integrals threads:           1
    Memory [MiB]:             7024
    Algorithm:                Core
    Integral Cache:           NONE
    Schwarz Cutoff:          1E-12
    Fitting Condition:       1E-10

   => Auxiliary Basis Set <=

  Basis Set: (3-21G AUX)
    Blend: DEF2-SVP-JKFIT
    Number of shells: 114
    Number of basis function: 465
    Number of Cartesian functions: 465
    Spherical Harmonics?: false
    Max angular momentum: 4

  Cached 100.0% of DFT collocation blocks in 0.125 [GiB].

  Minimum eigenvalue in the overlap matrix is 3.0591905050E-02.
  Using Symmetric Orthogonalization.

  SCF Guess: Superposition of Atomic Densities via on-the-fly atomic UHF.

  ==> Iterations <==

                           Total Energy        Delta E     RMS |[F,P]|

   @DF-UKS iter SAD: -1188.23230644723935   -1.18823e+03   0.00000e+00 
   @DF-UKS iter   1: -1188.47581508911026   -2.43509e-01   1.01549e-02 DIIS
   @DF-UKS iter   2: -1188.50575238518468   -2.99373e-02   7.96254e-03 DIIS
   @DF-UKS iter   3: -1188.54154950254451   -3.57971e-02   2.90839e-03 DIIS
   @DF-UKS iter   4: -1188.54762234205191   -6.07284e-03   9.81441e-04 DIIS
   @DF-UKS iter   5: -1188.54847793781801   -8.55596e-04   3.34305e-04 DIIS
   @DF-UKS iter   6: -1188.54888052070828   -4.02583e-04   2.23747e-04 DIIS
   @DF-UKS iter   7: -1188.54928011408811   -3.99593e-04   2.19033e-04 DIIS
   @DF-UKS iter   8: -1188.54919337042065    8.67437e-05   2.15912e-04 DIIS
   @DF-UKS iter   9: -1188.54792006334219    1.27331e-03   1.79857e-04 DIIS
   @DF-UKS iter  10: -1188.54772324561213    1.96818e-04   9.96231e-05 DIIS
   @DF-UKS iter  11: -1188.54766042369101    6.28219e-05   4.32716e-05 DIIS
   @DF-UKS iter  12: -1188.54764845524596    1.19684e-05   2.74877e-05 DIIS
   @DF-UKS iter  13: -1188.54765024404969   -1.78880e-06   8.22597e-06 DIIS
   @DF-UKS iter  14: -1188.54765033896115   -9.49115e-08   8.68983e-06 DIIS
   @DF-UKS iter  15: -1188.54765034291154   -3.95039e-09   4.27035e-06 DIIS
   @DF-UKS iter  16: -1188.54765036695062   -2.40391e-08   1.03894e-06 DIIS
   @DF-UKS iter  17: -1188.54765037069865   -3.74803e-09   3.06660e-07 DIIS
   @DF-UKS iter  18: -1188.54765037089783   -1.99179e-10   1.72539e-07 DIIS
   @DF-UKS iter  19: -1188.54765037090556   -7.73070e-12   2.78715e-08 DIIS
   @DF-UKS iter  20: -1188.54765037090601   -4.54747e-13   1.16614e-08 DIIS
   @DF-UKS iter  21: -1188.54765037090556    4.54747e-13   4.17978e-09 DIIS
  Energy and wave function converged.


  ==> Post-Iterations <==

   @Spin Contamination Metric:   1.368895686E-02
   @S^2 Expected:                3.750000000E+00
   @S^2 Observed:                3.763688957E+00
   @S   Expected:                1.500000000E+00
   @S   Observed:                1.500000000E+00

    Orbital Energies [Eh]
    ---------------------

    Alpha Occupied:                                                       

       1Ap   -88.247286     2Ap   -88.211233     3Ap   -88.189274  
       4Ap    -7.853641     5Ap    -7.813938     6Ap    -7.789558  
       7Ap    -5.808166     8Ap    -5.803525     1App   -5.802107  
       9Ap    -5.772960    10Ap    -5.764712     2App   -5.760318  
      11Ap    -5.749079     3App   -5.741466    12Ap    -5.736609  
      13Ap    -0.748740    14Ap    -0.620721    15Ap    -0.495160  
      16Ap    -0.301705    17Ap    -0.274671     4App   -0.264521  
      18Ap    -0.164700     5App   -0.163215    19Ap    -0.141811  
       6App   -0.099325    20Ap     0.001826  

    Alpha Virtual:                                                        

      21Ap     0.255136    22Ap     0.653285    23Ap     0.720920  
      24Ap     0.732777    25Ap     0.739259     7App    0.742461  
      26Ap     0.774204     8App    0.791421     9App    0.816077  
      27Ap     0.817879    28Ap     0.842252    29Ap     0.888318  
      30Ap     0.913583  

    Beta Occupied:                                                        

       1Ap   -88.240854     2Ap   -88.205992     3Ap   -88.182340  
       4Ap    -7.846110     5Ap    -7.808079     6Ap    -7.781752  
       7Ap    -5.805000     8Ap    -5.790952     1App   -5.789510  
       9Ap    -5.763648    10Ap    -5.754757     2App   -5.753190  
      11Ap    -5.734960     3App   -5.729315    12Ap    -5.728330  
      13Ap    -0.708584    14Ap    -0.574939    15Ap    -0.434285  
      16Ap    -0.255263    17Ap    -0.230261     4App   -0.220185  
       5App   -0.103873    18Ap    -0.095540  

    Beta Virtual:                                                         

      19Ap     0.075041     6App    0.128802    20Ap     0.235900  
      21Ap     0.297408    22Ap     0.669280    23Ap     0.736736  
      24Ap     0.752449    25Ap     0.760949     7App    0.765086  
      26Ap     0.792342     8App    0.810883    27Ap     0.838420  
       9App    0.840582    28Ap     0.859852    29Ap     0.911474  
      30Ap     0.931222  

    Final Occupation by Irrep:
             Ap   App 
    DOCC [    18,    5 ]
    SOCC [     2,    1 ]

  @DF-UKS Final Energy: -1188.54765037090556

   => Energetics <=

    Nuclear Repulsion Energy =            170.3929396686404800
    One-Electron Energy =               -1993.2747154881333245
    Two-Electron Energy =                 690.6586360132741902
    DFT Exchange-Correlation Energy =     -56.3242310048144148
    Empirical Dispersion Energy =          -0.0002795598724586
    VV10 Nonlocal Energy =                  0.0000000000000000
    Total Energy =                      -1188.5476503709055578

  UHF NO Occupations:
  HONO-2 :    6App 1.0000000
  HONO-1 :   19 Ap 1.0000000
  HONO-0 :   20 Ap 1.0000000
  LUNO+0 :   21 Ap 0.0050747
  LUNO+1 :    7App 0.0007593
  LUNO+2 :   22 Ap 0.0003690
  LUNO+3 :    8App 0.0003094


Computation Completed

  //>>>>>>>>>>>>>>>>>>>>>>>>>>>>>>>>>>>//
  //              WB97X-D              //
  //<<<<<<<<<<<<<<<<<<<<<<<<<<<<<<<<<<<//

   => Loading Basis Set <=

    Name: AUG-CC-PVTZ
    Role: ORBITAL
    Keyword: BASIS
    atoms 1-3 entry S          line   906 file /apps/gb/PSI4/1.4.0/share/psi4/basis/aug-cc-pvtz.gbs 

   => WB97X-D: Empirical Dispersion <=

    Chai and Head-Gordon Dispersion Correction
    Chai, J.-D.; Head-Gordon, M. (2010), J. Chem. Phys., 132: 6615-6620

        s6 =       1.000000


         ---------------------------------------------------------
                                   SCF
               by Justin Turney, Rob Parrish, Andy Simmonett
                          and Daniel G. A. Smith
                              UKS Reference
                        1 Threads,   9536 MiB Core
         ---------------------------------------------------------

  ==> Geometry <==

    Molecular point group: cs
    Full point group: Cs

    Geometry (in Angstrom), charge = -1, multiplicity = 4:

       Center              X                  Y                   Z               Mass       
    ------------   -----------------  -----------------  -----------------  -----------------
         S            0.606217782649     0.316666666667     0.000000000000    31.972071174400
         S            0.606217782649    -1.683333333333     0.000000000000    31.972071174400
         S           -1.212435565298     1.366666666667     0.000000000000    31.972071174400

  Running in cs symmetry.

  Rotational constants: A =      0.75413  B =      0.08359  C =      0.07525 [cm^-1]
  Rotational constants: A =  22608.14975  B =   2506.04720  C =   2255.97858 [MHz]
  Nuclear repulsion =  170.392939668640480

  Charge       = -1
  Multiplicity = 4
  Electrons    = 49
  Nalpha       = 26
  Nbeta        = 23

  ==> Algorithm <==

  SCF Algorithm Type is DF.
  DIIS enabled.
  MOM disabled.
  Fractional occupation disabled.
  Guess Type is SAD.
  Energy threshold   = 1.00e-08
  Density threshold  = 1.00e-08
  Integral threshold = 0.00e+00

  ==> Primary Basis <==

  Basis Set: AUG-CC-PVTZ
    Blend: AUG-CC-PVTZ
    Number of shells: 48
    Number of basis function: 150
    Number of Cartesian functions: 177
    Spherical Harmonics?: true
    Max angular momentum: 3

  ==> DFT Potential <==

   => Composite Functional: WB97X-D <= 

    wB97X-D Hyb-GGA Exchange-Correlation Functional

    J.-D. Chai and M. Head-Gordon, Phys. Chem. Chem. Phys. 10, 6615 (2008)

    Deriv               =              1
    GGA                 =           TRUE
    Meta                =          FALSE

    Exchange Hybrid     =           TRUE
    MP2 Hybrid          =          FALSE

   => Exchange-Correlation Functionals <=

    1.0000   wB97D range-separated functional

   => Exact (HF) Exchange <=

    0.7780            HF,LR [omega = 0.2000]
    0.2220               HF 

   => Molecular Quadrature <=

    Radial Scheme          =       TREUTLER
    Pruning Scheme         =           NONE
    Nuclear Scheme         =       TREUTLER

    BS radius alpha        =              1
    Pruning alpha          =              1
    Radial Points          =             99
    Spherical Points       =            590
    Total Points           =         169927
    Total Blocks           =           1392
    Max Points             =            256
    Max Functions          =            150
    Weights Tolerance      =       1.00E-15

   => Loading Basis Set <=

    Name: (AUG-CC-PVTZ AUX)
    Role: JKFIT
    Keyword: DF_BASIS_SCF
    atoms 1-3 entry S          line   730 file /apps/gb/PSI4/1.4.0/share/psi4/basis/aug-cc-pvtz-jkfit.gbs 


  Computing basis projection from 3-21G to AUG-CC-PVTZ

  ==> Pre-Iterations <==

   -------------------------------------------------------
    Irrep   Nso     Nmo     Nalpha   Nbeta   Ndocc  Nsocc
   -------------------------------------------------------
     A'        99      99       0       0       0       0
     A"        51      51       0       0       0       0
   -------------------------------------------------------
    Total     150     150      26      23      23       3
   -------------------------------------------------------

  ==> Integral Setup <==

  ==> DiskDFJK: Density-Fitted J/K Matrices <==

    J tasked:                  Yes
    K tasked:                  Yes
    wK tasked:                 Yes
    Omega:               2.000E-01
    OpenMP threads:              1
    Integrals threads:           1
    Memory [MiB]:             6486
    Algorithm:                Core
    Integral Cache:           NONE
    Schwarz Cutoff:          1E-12
    Fitting Condition:       1E-10

   => Auxiliary Basis Set <=

  Basis Set: (AUG-CC-PVTZ AUX)
    Blend: AUG-CC-PVTZ-JKFIT
    Number of shells: 126
    Number of basis function: 438
    Number of Cartesian functions: 540
    Spherical Harmonics?: true
    Max angular momentum: 4

  Cached 100.0% of DFT collocation blocks in 0.650 [GiB].

  Minimum eigenvalue in the overlap matrix is 2.2915518432E-04.
  Using Symmetric Orthogonalization.

  SCF Guess: Orbitals guess was supplied from a previous computation.

  ==> Iterations <==

                           Total Energy        Delta E     RMS |[F,P]|

   @DF-UKS iter   0: -1194.08098397494405   -1.19408e+03   4.07067e-02 
   @DF-UKS iter   1: -1194.54373702982957   -4.62753e-01   1.75001e-03 DIIS
   @DF-UKS iter   2: -1194.55249288739151   -8.75586e-03   9.89451e-04 DIIS
   @DF-UKS iter   3: -1194.55829495141143   -5.80206e-03   4.39127e-04 DIIS
   @DF-UKS iter   4: -1194.55984427393901   -1.54932e-03   1.11953e-04 DIIS
   @DF-UKS iter   5: -1194.56001041259151   -1.66139e-04   6.04565e-05 DIIS
   @DF-UKS iter   6: -1194.56008003742136   -6.96248e-05   3.52505e-05 DIIS
   @DF-UKS iter   7: -1194.56010709428756   -2.70569e-05   1.57913e-05 DIIS
   @DF-UKS iter   8: -1194.56012620430761   -1.91100e-05   1.19978e-05 DIIS
   @DF-UKS iter   9: -1194.56013965101465   -1.34467e-05   1.01259e-05 DIIS
   @DF-UKS iter  10: -1194.56014907157987   -9.42057e-06   1.02668e-05 DIIS
   @DF-UKS iter  11: -1194.56014368368346    5.38790e-06   9.95834e-06 DIIS
   @DF-UKS iter  12: -1194.56012512968073    1.85540e-05   7.81239e-06 DIIS
   @DF-UKS iter  13: -1194.56011435666960    1.07730e-05   4.55391e-06 DIIS
   @DF-UKS iter  14: -1194.56011475836431   -4.01695e-07   2.39656e-06 DIIS
   @DF-UKS iter  15: -1194.56011533464152   -5.76277e-07   1.40365e-06 DIIS
   @DF-UKS iter  16: -1194.56011561772038   -2.83079e-07   9.46500e-07 DIIS
   @DF-UKS iter  17: -1194.56011567159362   -5.38732e-08   7.84342e-07 DIIS
   @DF-UKS iter  18: -1194.56011568321446   -1.16208e-08   3.31650e-07 DIIS
   @DF-UKS iter  19: -1194.56011568572626   -2.51180e-09   1.10377e-07 DIIS
   @DF-UKS iter  20: -1194.56011568609983   -3.73575e-10   4.44585e-08 DIIS
   @DF-UKS iter  21: -1194.56011568623830   -1.38471e-10   1.89760e-08 DIIS
   @DF-UKS iter  22: -1194.56011568625763   -1.93268e-11   1.01007e-08 DIIS
   @DF-UKS iter  23: -1194.56011568625672    9.09495e-13   6.24856e-09 DIIS
  Energy and wave function converged.


  ==> Post-Iterations <==

   @Spin Contamination Metric:   2.477865092E-02
   @S^2 Expected:                3.750000000E+00
   @S^2 Observed:                3.774778651E+00
   @S   Expected:                1.500000000E+00
   @S   Observed:                1.500000000E+00

    Orbital Energies [Eh]
    ---------------------

    Alpha Occupied:                                                       

       1Ap   -88.931534     2Ap   -88.892845     3Ap   -88.865549  
       4Ap    -7.936906     5Ap    -7.900522     6Ap    -7.873126  
       7Ap    -5.884395     1App   -5.883126     8Ap    -5.882937  
       9Ap    -5.852555    10Ap    -5.846167     2App   -5.843442  
      11Ap    -5.825715     3App   -5.819119    12Ap    -5.815691  
      13Ap    -0.745680    14Ap    -0.628308    15Ap    -0.516453  
      16Ap    -0.317310    17Ap    -0.288610     4App   -0.277282  
      18Ap    -0.184997     5App   -0.180474    19Ap    -0.160474  
       6App   -0.115072    20Ap    -0.009947  

    Alpha Virtual:                                                        

      21Ap     0.162673    22Ap     0.183655    23Ap     0.202147  
       7App    0.218913    24Ap     0.225140    25Ap     0.232441  
       8App    0.236335    26Ap     0.241083     9App    0.242148  
      27Ap     0.255222    28Ap     0.258983    29Ap     0.331193  
      30Ap     0.343770    10App    0.358279    31Ap     0.375842  
      11App    0.378792    32Ap     0.409467    33Ap     0.434174  
      34Ap     0.436494    12App    0.450581    13App    0.455412  
      35Ap     0.455425    14App    0.499292    36Ap     0.503407  
      37Ap     0.511489    38Ap     0.531131    15App    0.550657  
      39Ap     0.573467    16App    0.621412    40Ap     0.644037  
      17App    0.696214    41Ap     0.709649    42Ap     0.714168  
      43Ap     0.721813    18App    0.735856    44Ap     0.736749  
      19App    0.738793    45Ap     0.744978    46Ap     0.757622  
      20App    0.757966    21App    0.796983    47Ap     0.798568  
      48Ap     0.803573    49Ap     0.810507    22App    0.823847  
      50Ap     0.829906    51Ap     0.841931    52Ap     0.864485  
      23App    0.866273    53Ap     0.908457    24App    0.913323  
      25App    0.926037    54Ap     0.965176    26App    0.970139  
      55Ap     0.974718    27App    0.987281    56Ap     1.010635  
      57Ap     1.028929    58Ap     1.039679    59Ap     1.114830  
      28App    1.130281    29App    1.166876    60Ap     1.196512  
      30App    1.228045    61Ap     1.234830    31App    1.308782  
      62Ap     1.313085    63Ap     1.318210    64Ap     1.352701  
      65Ap     1.371956    32App    1.396814    33App    1.402978  
      66Ap     1.500644    67Ap     1.509962    68Ap     1.579041  
      69Ap     1.686717    70Ap     1.974586    34App    1.993039  
      35App    2.008512    71Ap     2.019265    72Ap     2.053729  
      36App    2.058821    37App    2.063594    73Ap     2.068783  
      74Ap     2.096703    38App    2.137339    75Ap     2.146534  
      76Ap     2.165176    77Ap     2.184407    39App    2.195628  
      78Ap     2.199697    40App    2.204791    41App    2.224595  
      79Ap     2.228611    42App    2.249523    80Ap     2.255420  
      43App    2.271798    81Ap     2.305813    82Ap     2.320314  
      44App    2.336932    83Ap     2.347090    45App    2.358403  
      84Ap     2.363054    46App    2.435072    85Ap     2.443230  
      47App    2.447999    86Ap     2.458394    87Ap     2.471262  
      48App    2.480796    49App    2.528664    88Ap     2.567290  
      89Ap     2.586673    90Ap     2.634003    91Ap     2.652118  
      92Ap     2.683014    50App    2.729060    93Ap     2.738834  
      51App    2.791779    94Ap     2.895872    95Ap     3.783974  
      96Ap     3.884193    97Ap     4.936971    98Ap     5.344734  
      99Ap     5.813470  

    Beta Occupied:                                                        

       1Ap   -88.925075     2Ap   -88.887725     3Ap   -88.859434  
       4Ap    -7.929817     5Ap    -7.895189     6Ap    -7.866697  
       7Ap    -5.881195     8Ap    -5.871636     1App   -5.870194  
       9Ap    -5.843416    10Ap    -5.837711     2App   -5.836487  
      11Ap    -5.813627     3App   -5.809122    12Ap    -5.808762  
      13Ap    -0.707712    14Ap    -0.585035    15Ap    -0.454660  
      16Ap    -0.274565    17Ap    -0.244227     4App   -0.230225  
       5App   -0.127965    18Ap    -0.115709  

    Beta Virtual:                                                         

      19Ap     0.053894     6App    0.111903    20Ap     0.182677  
      21Ap     0.190480    22Ap     0.214543     7App    0.225370  
      23Ap     0.226598    24Ap     0.237104     8App    0.243179  
      25Ap     0.257883     9App    0.259294    26Ap     0.261947  
      27Ap     0.269956    28Ap     0.283139    29Ap     0.338071  
      30Ap     0.353211    10App    0.364303    31Ap     0.384900  
      11App    0.388712    32Ap     0.425197    33Ap     0.444367  
      34Ap     0.450668    12App    0.461663    13App    0.463921  
      35Ap     0.470169    14App    0.510708    36Ap     0.511271  
      37Ap     0.517355    38Ap     0.535276    15App    0.553686  
      39Ap     0.580959    16App    0.633298    40Ap     0.655301  
      17App    0.703724    41Ap     0.716318    42Ap     0.724985  
      43Ap     0.732914    44Ap     0.748385    18App    0.749912  
      19App    0.750485    45Ap     0.757450    20App    0.768545  
      46Ap     0.770680    47Ap     0.806681    48Ap     0.820226  
      21App    0.821956    49Ap     0.832001    22App    0.842077  
      50Ap     0.849957    51Ap     0.867617    52Ap     0.879348  
      23App    0.886554    24App    0.928918    53Ap     0.933468  
      25App    0.948178    54Ap     0.972538    26App    0.975250  
      55Ap     0.982837    27App    0.995085    56Ap     1.033500  
      57Ap     1.043554    58Ap     1.049332    59Ap     1.124048  
      28App    1.136450    29App    1.175961    60Ap     1.205076  
      30App    1.234684    61Ap     1.240274    31App    1.317863  
      62Ap     1.321831    63Ap     1.327808    64Ap     1.363562  
      65Ap     1.385824    32App    1.408798    33App    1.413818  
      66Ap     1.517921    67Ap     1.521618    68Ap     1.599525  
      69Ap     1.709861    70Ap     2.000089    34App    2.018095  
      35App    2.030874    71Ap     2.039452    36App    2.075717  
      72Ap     2.078637    73Ap     2.084842    37App    2.088249  
      74Ap     2.116901    38App    2.159365    75Ap     2.163043  
      76Ap     2.185779    77Ap     2.203456    39App    2.218567  
      78Ap     2.219362    40App    2.226214    41App    2.247599  
      79Ap     2.248177    42App    2.276216    80Ap     2.281953  
      43App    2.301345    81Ap     2.325259    82Ap     2.350744  
      44App    2.366132    83Ap     2.372839    45App    2.385722  
      84Ap     2.389945    46App    2.457852    85Ap     2.470844  
      47App    2.477136    86Ap     2.488957    87Ap     2.497400  
      48App    2.508046    49App    2.555330    88Ap     2.593833  
      89Ap     2.611172    90Ap     2.653407    91Ap     2.674370  
      92Ap     2.705890    93Ap     2.756446    50App    2.758409  
      51App    2.813701    94Ap     2.918671    95Ap     3.808473  
      96Ap     3.897976    97Ap     4.952342    98Ap     5.357360  
      99Ap     5.827045  

    Final Occupation by Irrep:
             Ap   App 
    DOCC [    18,    5 ]
    SOCC [     2,    1 ]

  @DF-UKS Final Energy: -1194.56011568625672

   => Energetics <=

    Nuclear Repulsion Energy =            170.3929396686404800
    One-Electron Energy =               -1998.9902743825089146
    Two-Electron Energy =                 690.3771114577903063
    DFT Exchange-Correlation Energy =     -56.3396128703060981
    Empirical Dispersion Energy =          -0.0002795598724586
    VV10 Nonlocal Energy =                  0.0000000000000000
    Total Energy =                      -1194.5601156862567223

  UHF NO Occupations:
  HONO-2 :    6App 1.0000000
  HONO-1 :   19 Ap 1.0000000
  HONO-0 :   20 Ap 1.0000000
  LUNO+0 :   21 Ap 0.0064686
  LUNO+1 :    7App 0.0022649
  LUNO+2 :    8App 0.0010816
  LUNO+3 :   22 Ap 0.0010154


Computation Completed


Properties will be evaluated at   0.000000,   0.000000,   0.000000 [a0]

Properties computed using the SCF density matrix

  Nuclear Dipole Moment: [e a0]
     X:     0.0000      Y:    -0.0000      Z:     0.0000

  Electronic Dipole Moment: [e a0]
     X:     0.4151      Y:    -0.4338      Z:     0.0000

  Dipole Moment: [e a0]
     X:     0.4151      Y:    -0.4338      Z:     0.0000     Total:     0.6004

  Dipole Moment: [D]
     X:     1.0550      Y:    -1.1026      Z:     0.0000     Total:     1.5261


*** tstop() called on c2-18.compute.lan at Wed Feb  3 12:08:51 2021
Module time:
	user time   =     146.49 seconds =       2.44 minutes
	system time =       0.87 seconds =       0.01 minutes
	total time  =        148 seconds =       2.47 minutes
Total time:
	user time   =     146.49 seconds =       2.44 minutes
	system time =       0.87 seconds =       0.01 minutes
	total time  =        148 seconds =       2.47 minutes

*** tstart() called on c2-18.compute.lan
*** at Wed Feb  3 12:08:51 2021


         ------------------------------------------------------------
                                   SCF GRAD                          
                          Rob Parrish, Justin Turney,                
                       Andy Simmonett, and Alex Sokolov              
         ------------------------------------------------------------

  ==> Geometry <==

    Molecular point group: cs
    Full point group: Cs

    Geometry (in Angstrom), charge = -1, multiplicity = 4:

       Center              X                  Y                   Z               Mass       
    ------------   -----------------  -----------------  -----------------  -----------------
         S            0.606217782649     0.316666666667     0.000000000000    31.972071174400
         S            0.606217782649    -1.683333333333     0.000000000000    31.972071174400
         S           -1.212435565298     1.366666666667     0.000000000000    31.972071174400

  Nuclear repulsion =  170.392939668640480

  ==> Basis Set <==

  Basis Set: AUG-CC-PVTZ
    Blend: AUG-CC-PVTZ
    Number of shells: 48
    Number of basis function: 150
    Number of Cartesian functions: 177
    Spherical Harmonics?: true
    Max angular momentum: 3

  ==> DFJKGrad: Density-Fitted SCF Gradients <==

    Gradient:                    1
    J tasked:                  Yes
    K tasked:                  Yes
    wK tasked:                 Yes
    Omega:               2.000E-01
    OpenMP threads:              1
    Integrals threads:           1
    Memory [MiB]:             7152
    Schwarz Cutoff:          0E+00
    Fitting Condition:       1E-10

   => Auxiliary Basis Set <=

  Basis Set: (AUG-CC-PVTZ AUX)
    Blend: AUG-CC-PVTZ-JKFIT
    Number of shells: 126
    Number of basis function: 438
    Number of Cartesian functions: 540
    Spherical Harmonics?: true
    Max angular momentum: 4

  ==> DFT Potential <==

   => Composite Functional: WB97X-D <= 

    wB97X-D Hyb-GGA Exchange-Correlation Functional

    J.-D. Chai and M. Head-Gordon, Phys. Chem. Chem. Phys. 10, 6615 (2008)

    Deriv               =              1
    GGA                 =           TRUE
    Meta                =          FALSE

    Exchange Hybrid     =           TRUE
    MP2 Hybrid          =          FALSE

   => Exchange-Correlation Functionals <=

    1.0000   wB97D range-separated functional

   => Exact (HF) Exchange <=

    0.7780            HF,LR [omega = 0.2000]
    0.2220               HF 

   => Molecular Quadrature <=

    Radial Scheme          =       TREUTLER
    Pruning Scheme         =           NONE
    Nuclear Scheme         =       TREUTLER

    BS radius alpha        =              1
    Pruning alpha          =              1
    Radial Points          =             99
    Spherical Points       =            590
    Total Points           =         169927
    Total Blocks           =           1392
    Max Points             =            256
    Max Functions          =            150
    Weights Tolerance      =       1.00E-15


  -Total Gradient:
     Atom            X                  Y                   Z
    ------   -----------------  -----------------  -----------------
       1       -0.005133922822     0.008131474746     0.000000000000
       2       -0.022224778912     0.032100243715     0.000000000000
       3        0.027377463391    -0.040252836966     0.000000000000


*** tstop() called on c2-18.compute.lan at Wed Feb  3 12:09:09 2021
Module time:
	user time   =      18.37 seconds =       0.31 minutes
	system time =       0.07 seconds =       0.00 minutes
	total time  =         18 seconds =       0.30 minutes
Total time:
	user time   =     164.86 seconds =       2.75 minutes
	system time =       0.94 seconds =       0.02 minutes
	total time  =        166 seconds =       2.77 minutes

			-----------------------------------------
			 OPTKING 2.0: for geometry optimizations 
			  - R.A. King,  Bethel University        
			-----------------------------------------

	Internal coordinates to be generated automatically.
	Detected frag 1 with atoms:  1 2 3
	---Fragment 1 Bond Connectivity---
	 1 : 2 3
	 2 : 1
	 3 : 1

	---Fragment 1 Geometry and Gradient---
	 S           1.1455855816        0.5984132731        0.0000000000
	 S           1.1455855816       -3.1810389779        0.0000000000
	 S          -2.2911711632        2.5826257048        0.0000000000
	            -0.0051339228        0.0081314747        0.0000000000
	            -0.0222247789        0.0321002437        0.0000000000
	             0.0273774634       -0.0402528370        0.0000000000

	Previous optimization step data not found.  Starting new optimization.

	---Fragment 1 Intrafragment Coordinates---
	 - Coordinate -           - BOHR/RAD -       - ANG/DEG -
	 R(1,2)           =         3.779452	       2.000000
	 R(1,3)           =         3.968425	       2.100000
	 B(2,1,3)         =         2.094395	     120.000000

	Current energy   :     -1194.5601156863

	Generating empirical Hessian (Schlegel '84) for each fragment.
	Taking RFO optimization step.
	Going to follow RFO solution 1.
	Using RFO vector 1.
	Norm of target step-size    0.34327
	Projected energy change by RFO approximation:        -0.0201906610

	Back-transformation to cartesian coordinates...
	Successfully converged to displaced geometry.

	--- Internal Coordinate Step in ANG or DEG, aJ/ANG or AJ/DEG ---
	 ---------------------------------------------------------------------------
	   Coordinate                Previous        Force       Change         New 
	   ----------                --------       ------       ------       ------
	    1 R(1,2)          =      2.000000     0.264529     0.044696     2.044696
	    2 R(1,3)          =      2.100000     0.361073     0.080843     2.180843
	    3 B(2,1,3)        =    120.000000     0.006393    16.935041   136.935041
	 ---------------------------------------------------------------------------
	Successfully symmetrized geometry.

  ==> Convergence Check <==

  Measures of convergence in internal coordinates in au.
  Criteria marked as inactive (o), active & met (*), and active & unmet ( ).
  --------------------------------------------------------------------------------------------- ~
   Step     Total Energy     Delta E     MAX Force     RMS Force      MAX Disp      RMS Disp    ~
  --------------------------------------------------------------------------------------------- ~
    Convergence Criteria             o    2.00e-06 *    1.00e-06 *    6.00e-06 *    4.00e-06 *  ~
  --------------------------------------------------------------------------------------------- ~
      1   -1194.56011569   -1.19e+03 o    8.40e-02      5.78e-02      2.96e-01      1.98e-01    ~
  ---------------------------------------------------------------------------------------------

	Writing optimization data to binary file.
	Structure for next step:
	Cartesian Geometry (in Angstrom)
	    S     0.4679130664   0.2238119763   0.0000000000
	    S     0.7771463397  -1.7973649873   0.0000000000
	    S    -1.2450594061   1.5735530110   0.0000000000
			--------------------------
			 OPTKING Finished Execution 
			--------------------------

    Structure for next step:
    Molecular point group: cs
    Full point group: Cs

    Geometry (in Angstrom), charge = -1, multiplicity = 4:

    S       
    S             1          r1
    S             1          r2      2          a1

    a1        =  136.9350405586
    r1        =    2.0446959599
    r2        =    2.1808428622

gradient() will perform analytic gradient computation.

*** tstart() called on c2-18.compute.lan
*** at Wed Feb  3 12:09:09 2021


  //>>>>>>>>>>>>>>>>>>>>>>>>>>>>>>>>>>>//
  //       Guess SCF, 3-21G Basis      //
  //<<<<<<<<<<<<<<<<<<<<<<<<<<<<<<<<<<<//

   => Loading Basis Set <=

    Name: 3-21G
    Role: ORBITAL
    Keyword: BASIS
    atoms 1-3 entry S          line   198 file /apps/gb/PSI4/1.4.0/share/psi4/basis/3-21g.gbs 


         ---------------------------------------------------------
                           SCF Castup computation                     => WB97X-D: Empirical Dispersion <=

    Chai and Head-Gordon Dispersion Correction
    Chai, J.-D.; Head-Gordon, M. (2010), J. Chem. Phys., 132: 6615-6620

        s6 =       1.000000


         ---------------------------------------------------------
                                   SCF
               by Justin Turney, Rob Parrish, Andy Simmonett
                          and Daniel G. A. Smith
                              UKS Reference
                        1 Threads,   9536 MiB Core
         ---------------------------------------------------------

  ==> Geometry <==

    Molecular point group: cs
    Full point group: Cs

    Geometry (in Angstrom), charge = -1, multiplicity = 4:

       Center              X                  Y                   Z               Mass       
    ------------   -----------------  -----------------  -----------------  -----------------
         S            0.496379534481     0.150471918569     0.000000000000    31.972071174400
         S            0.496379534481    -1.894224041379     0.000000000000    31.972071174400
         S           -0.992759068961     1.743752122810     0.000000000000    31.972071174400

  Running in cs symmetry.

  Rotational constants: A =      1.31885  B =      0.06821  C =      0.06486 [cm^-1]
  Rotational constants: A =  39538.26268  B =   2044.88461  C =   1944.32577 [MHz]
  Nuclear repulsion =  162.834138474696033

  Charge       = -1
  Multiplicity = 4
  Electrons    = 49
  Nalpha       = 26
  Nbeta        = 23

  ==> Algorithm <==

  SCF Algorithm Type is DF.
  DIIS enabled.
  MOM disabled.
  Fractional occupation disabled.
  Guess Type is READ.
  Energy threshold   = 1.00e-08
  Density threshold  = 1.00e-08
  Integral threshold = 0.00e+00

  ==> Primary Basis <==

  Basis Set: 3-21G
    Blend: 3-21G
    Number of shells: 21
    Number of basis function: 39
    Number of Cartesian functions: 39
    Spherical Harmonics?: false
    Max angular momentum: 1

  ==> DFT Potential <==

   => Composite Functional: WB97X-D <= 

    wB97X-D Hyb-GGA Exchange-Correlation Functional

    J.-D. Chai and M. Head-Gordon, Phys. Chem. Chem. Phys. 10, 6615 (2008)

    Deriv               =              1
    GGA                 =           TRUE
    Meta                =          FALSE

    Exchange Hybrid     =           TRUE
    MP2 Hybrid          =          FALSE

   => Exchange-Correlation Functionals <=

    1.0000   wB97D range-separated functional

   => Exact (HF) Exchange <=

    0.7780            HF,LR [omega = 0.2000]
    0.2220               HF 

   => Molecular Quadrature <=

    Radial Scheme          =       TREUTLER
    Pruning Scheme         =           NONE
    Nuclear Scheme         =       TREUTLER

    BS radius alpha        =              1
    Pruning alpha          =              1
    Radial Points          =             99
    Spherical Points       =            590
    Total Points           =         156250
    Total Blocks           =           1227
    Max Points             =            256
    Max Functions          =             33
    Weights Tolerance      =       1.00E-15

   => Loading Basis Set <=

    Name: (3-21G AUX)
    Role: JKFIT
    Keyword: DF_BASIS_SCF
    atoms 1-3 entry S          line   908 file /apps/gb/PSI4/1.4.0/share/psi4/basis/def2-svp-jkfit.gbs 

  ==> Pre-Iterations <==

   -------------------------------------------------------
    Irrep   Nso     Nmo     Nalpha   Nbeta   Ndocc  Nsocc
   -------------------------------------------------------
     A'        30      30       0       0       0       0
     A"         9       9       0       0       0       0
   -------------------------------------------------------
    Total      39      39      26      23      23       3
   -------------------------------------------------------

  ==> Integral Setup <==

  ==> DiskDFJK: Density-Fitted J/K Matrices <==

    J tasked:                  Yes
    K tasked:                  Yes
    wK tasked:                 Yes
    Omega:               2.000E-01
    OpenMP threads:              1
    Integrals threads:           1
    Memory [MiB]:             7025
    Algorithm:                Core
    Integral Cache:           NONE
    Schwarz Cutoff:          1E-12
    Fitting Condition:       1E-10

   => Auxiliary Basis Set <=

  Basis Set: (3-21G AUX)
    Blend: DEF2-SVP-JKFIT
    Number of shells: 114
    Number of basis function: 465
    Number of Cartesian functions: 465
    Spherical Harmonics?: false
    Max angular momentum: 4

  Cached 100.0% of DFT collocation blocks in 0.124 [GiB].

  Minimum eigenvalue in the overlap matrix is 3.6318661427E-02.
  Using Symmetric Orthogonalization.


Warning! Guess was READ without Ca set, switching to CORE!
           This option should have been configured at the driver level.

  SCF Guess: Core (One-Electron) Hamiltonian.

  ==> Iterations <==

                           Total Energy        Delta E     RMS |[F,P]|

    Occupation by irrep:
             Ap   App 
    DOCC [    19,    4 ]
    SOCC [     1,    2 ]

   @DF-UKS iter   1: -1177.75431092846884   -1.17775e+03   9.88513e-02 DIIS
    Occupation by irrep:
             Ap   App 
    DOCC [    18,    5 ]
    SOCC [     2,    1 ]

   @DF-UKS iter   2: -1174.12123554711297    3.63308e+00   9.34630e-02 DIIS
   @DF-UKS iter   3: -1182.85779799844522   -8.73656e+00   5.74534e-02 DIIS
   @DF-UKS iter   4: -1187.19783582617538   -4.34004e+00   3.59843e-02 DIIS
   @DF-UKS iter   5: -1188.31694945211666   -1.11911e+00   1.81140e-02 DIIS
   @DF-UKS iter   6: -1188.42044879605101   -1.03499e-01   1.30365e-02 DIIS
   @DF-UKS iter   7: -1188.57349176312960   -1.53043e-01   3.45977e-03 DIIS
   @DF-UKS iter   8: -1188.58644464494546   -1.29529e-02   2.02150e-03 DIIS
   @DF-UKS iter   9: -1188.58890955069637   -2.46491e-03   1.10144e-03 DIIS
   @DF-UKS iter  10: -1188.59034253706659   -1.43299e-03   3.25842e-04 DIIS
   @DF-UKS iter  11: -1188.59071236835143   -3.69831e-04   1.42748e-04 DIIS
   @DF-UKS iter  12: -1188.59088333756563   -1.70969e-04   1.01998e-04 DIIS
   @DF-UKS iter  13: -1188.59095058902017   -6.72515e-05   8.47352e-05 DIIS
   @DF-UKS iter  14: -1188.59098393097293   -3.33420e-05   7.52319e-05 DIIS
   @DF-UKS iter  15: -1188.59088234673891    1.01584e-04   5.97346e-05 DIIS
   @DF-UKS iter  16: -1188.59062557591051    2.56771e-04   5.76670e-05 DIIS
   @DF-UKS iter  17: -1188.59052041097675    1.05165e-04   6.86485e-05 DIIS
   @DF-UKS iter  18: -1188.59067484885009   -1.54438e-04   7.43458e-05 DIIS
   @DF-UKS iter  19: -1188.58968694049577    9.87908e-04   3.85171e-04 DIIS
   @DF-UKS iter  20: -1188.59017041357356   -4.83473e-04   1.89142e-04 DIIS
   @DF-UKS iter  21: -1188.59020567933658   -3.52658e-05   1.75434e-04 DIIS
   @DF-UKS iter  22: -1188.59019742170130    8.25764e-06   1.78510e-04 DIIS
   @DF-UKS iter  23: -1188.59021111077891   -1.36891e-05   1.71925e-04 DIIS
   @DF-UKS iter  24: -1188.59016051931621    5.05915e-05   1.94464e-04 DIIS
   @DF-UKS iter  25: -1188.59009810329917    6.24160e-05   2.22564e-04 DIIS
   @DF-UKS iter  26: -1188.59009193082920    6.17247e-06   2.24148e-04 DIIS
   @DF-UKS iter  27: -1188.59011474911131   -2.28183e-05   2.13453e-04 DIIS
   @DF-UKS iter  28: -1188.59015793497247   -4.31859e-05   1.95530e-04 DIIS
   @DF-UKS iter  29: -1188.59019043666171   -3.25017e-05   1.81018e-04 DIIS
   @DF-UKS iter  30: -1188.59018349979624    6.93687e-06   1.84858e-04 DIIS
   @DF-UKS iter  31: -1188.59017051895853    1.29808e-05   1.90027e-04 DIIS
   @DF-UKS iter  32: -1188.59015724021583    1.32787e-05   1.96681e-04 DIIS
   @DF-UKS iter  33: -1188.59012860413122    2.86361e-05   2.08357e-04 DIIS
   @DF-UKS iter  34: -1188.59014847454728   -1.98704e-05   2.00102e-04 DIIS
   @DF-UKS iter  35: -1188.59014079563144    7.67892e-06   2.03063e-04 DIIS
   @DF-UKS iter  36: -1188.59017324929891   -3.24537e-05   1.88940e-04 DIIS
   @DF-UKS iter  37: -1188.59014820942571    2.50399e-05   2.00576e-04 DIIS
   @DF-UKS iter  38: -1188.59019103289370   -4.28235e-05   1.81034e-04 DIIS
   @DF-UKS iter  39: -1188.59012541979291    6.56131e-05   2.11077e-04 DIIS
   @DF-UKS iter  40: -1188.59014894533425   -2.35255e-05   1.99242e-04 DIIS
   @DF-UKS iter  41: -1188.59011153342863    3.74119e-05   2.17496e-04 DIIS
   @DF-UKS iter  42: -1188.59018094151816   -6.94081e-05   1.85224e-04 DIIS
   @DF-UKS iter  43: -1188.59013827124954    4.26703e-05   2.05739e-04 DIIS
   @DF-UKS iter  44: -1188.59019003914227   -5.17679e-05   1.81432e-04 DIIS
   @DF-UKS iter  45: -1188.59013353271052    5.65064e-05   2.07449e-04 DIIS
   @DF-UKS iter  46: -1188.59011607571938    1.74570e-05   2.13456e-04 DIIS
   @DF-UKS iter  47: -1188.59010037519829    1.57005e-05   2.21753e-04 DIIS
   @DF-UKS iter  48: -1188.59014265632254   -4.22811e-05   2.01224e-04 DIIS
   @DF-UKS iter  49: -1188.59015464166396   -1.19853e-05   1.98439e-04 DIIS
   @DF-UKS iter  50: -1188.59020329822488   -4.86566e-05   1.75918e-04 DIIS
   @DF-UKS iter  51: -1188.59012175996259    8.15383e-05   2.11687e-04 DIIS
   @DF-UKS iter  52: -1188.58979789427167    3.23866e-04   3.45855e-04 DIIS
   @DF-UKS iter  53: -1188.58980134313992   -3.44887e-06   3.35808e-04 DIIS
   @DF-UKS iter  54: -1188.58990139214688   -1.00049e-04   2.96898e-04 DIIS
   @DF-UKS iter  55: -1188.58996663654648   -6.52444e-05   2.71155e-04 DIIS
   @DF-UKS iter  56: -1188.59002702182624   -6.03853e-05   2.47340e-04 DIIS
   @DF-UKS iter  57: -1188.59009788897038   -7.08671e-05   2.17962e-04 DIIS
   @DF-UKS iter  58: -1188.59019747863226   -9.95897e-05   1.76333e-04 DIIS
   @DF-UKS iter  59: -1188.59020291469051   -5.43606e-06   1.75679e-04 DIIS
   @DF-UKS iter  60: -1188.59015423139681    4.86833e-05   1.97936e-04 DIIS
   @DF-UKS iter  61: -1188.59011784845643    3.63829e-05   2.13027e-04 DIIS
   @DF-UKS iter  62: -1188.59008522525801    3.26232e-05   2.28297e-04 DIIS
   @DF-UKS iter  63: -1188.59011142972804   -2.62045e-05   2.14405e-04 DIIS
   @DF-UKS iter  64: -1188.59013820076689   -2.67710e-05   2.05159e-04 DIIS
   @DF-UKS iter  65: -1188.59019138303552   -5.31823e-05   1.80697e-04 DIIS
   @DF-UKS iter  66: -1188.59014941138730    4.19716e-05   2.00464e-04 DIIS
   @DF-UKS iter  67: -1188.59015685496252   -7.44358e-06   1.95838e-04 DIIS
   @DF-UKS iter  68: -1188.59012638854369    3.04664e-05   2.10870e-04 DIIS
   @DF-UKS iter  69: -1188.59015646370335   -3.00752e-05   1.95684e-04 DIIS
   @DF-UKS iter  70: -1188.59014456131172    1.19024e-05   2.02926e-04 DIIS
   @DF-UKS iter  71: -1188.59018493157646   -4.03703e-05   1.83524e-04 DIIS
   @DF-UKS iter  72: -1188.59014569131864    3.92403e-05   2.02249e-04 DIIS
   @DF-UKS iter  73: -1188.59015921571813   -1.35244e-05   1.94740e-04 DIIS
   @DF-UKS iter  74: -1188.59013272323750    2.64925e-05   2.08096e-04 DIIS
   @DF-UKS iter  75: -1188.59016247142267   -2.97482e-05   1.93129e-04 DIIS
   @DF-UKS iter  76: -1188.59014636573238    1.61057e-05   2.02112e-04 DIIS
   @DF-UKS iter  77: -1188.59018046423762   -3.40985e-05   1.85442e-04 DIIS
   @DF-UKS iter  78: -1188.59014682236966    3.36419e-05   2.01806e-04 DIIS
   @DF-UKS iter  79: -1188.59016465877585   -1.78364e-05   1.92345e-04 DIIS
   @DF-UKS iter  80: -1188.59013845440677    2.62044e-05   2.05561e-04 DIIS
   @DF-UKS iter  81: -1188.59016357735004   -2.51229e-05   1.92694e-04 DIIS
   @DF-UKS iter  82: -1188.59014586579360    1.77116e-05   2.02286e-04 DIIS
   @DF-UKS iter  83: -1188.59017404753376   -2.81817e-05   1.88190e-04 DIIS
   @DF-UKS iter  84: -1188.59014880840664    2.52391e-05   2.00946e-04 DIIS
   @DF-UKS iter  85: -1188.59016883944196   -2.00310e-05   1.90495e-04 DIIS
   @DF-UKS iter  86: -1188.59014472991248    2.41095e-05   2.02739e-04 DIIS
   @DF-UKS iter  87: -1188.59016367872346   -1.89488e-05   1.92688e-04 DIIS
   @DF-UKS iter  88: -1188.59014663614562    1.70426e-05   2.01864e-04 DIIS
   @DF-UKS iter  89: -1188.59016701555220   -2.03794e-05   1.91221e-04 DIIS
   @DF-UKS iter  90: -1188.59015108993003    1.59256e-05   1.99849e-04 DIIS
   @DF-UKS iter  91: -1188.59016697068773   -1.58808e-05   1.91270e-04 DIIS
   @DF-UKS iter  92: -1188.59015174005708    1.52306e-05   1.99497e-04 DIIS
   @DF-UKS iter  93: -1188.59016230557427   -1.05655e-05   1.93308e-04 DIIS
   @DF-UKS iter  94: -1188.59015299336806    9.31221e-06   1.98830e-04 DIIS
   @DF-UKS iter  95: -1188.59015980306185   -6.80969e-06   1.94411e-04 DIIS
   @DF-UKS iter  96: -1188.59015779762785    2.00543e-06   1.96523e-04 DIIS
   @DF-UKS iter  97: -1188.59015768327959    1.14348e-07   1.95437e-04 DIIS
   @DF-UKS iter  98: -1188.59016402875727   -6.34548e-06   1.93496e-04 DIIS
   @DF-UKS iter  99: -1188.59015177840547    1.22504e-05   1.98320e-04 DIIS
   @DF-UKS iter 100: -1188.59017238205433   -2.06036e-05   1.89452e-04 DIIS
   @DF-UKS iter 101: -1188.59014020647510    3.21756e-05   2.04111e-04 DIIS
   @DF-UKS iter 102: -1188.59018676473943   -4.65583e-05   1.82901e-04 DIIS
   @DF-UKS iter 103: -1188.59012660305348    6.01617e-05   2.10647e-04 DIIS
   @DF-UKS iter 104: -1188.59017521532542   -4.86123e-05   1.87861e-04 DIIS
   @DF-UKS iter 105: -1188.59012494188232    5.02734e-05   2.11608e-04 DIIS
   @DF-UKS iter 106: -1188.59017814079380   -5.31989e-05   1.86523e-04 DIIS
   @DF-UKS iter 107: -1188.59013231009976    4.58307e-05   2.08351e-04 DIIS
   @DF-UKS iter 108: -1188.59017672427080   -4.44142e-05   1.87138e-04 DIIS
   @DF-UKS iter 109: -1188.59013335875170    4.33655e-05   2.07886e-04 DIIS
   @DF-UKS iter 110: -1188.59017215661379   -3.87979e-05   1.89088e-04 DIIS
   @DF-UKS iter 111: -1188.59013474194535    3.74147e-05   2.07322e-04 DIIS
   @DF-UKS iter 112: -1188.59017667964099   -4.19377e-05   1.87119e-04 DIIS
   @DF-UKS iter 113: -1188.59013785341494    3.88262e-05   2.05896e-04 DIIS
   @DF-UKS iter 114: -1188.59017286333096   -3.50099e-05   1.88780e-04 DIIS
   @DF-UKS iter 115: -1188.59013673770960    3.61256e-05   2.06408e-04 DIIS
   @DF-UKS iter 116: -1188.59017215111362   -3.54134e-05   1.89062e-04 DIIS
   @DF-UKS iter 117: -1188.59013881768578    3.33334e-05   2.05496e-04 DIIS
   @DF-UKS iter 118: -1188.59017474421807   -3.59265e-05   1.87944e-04 DIIS
   @DF-UKS iter 119: -1188.59013990073618    3.48435e-05   2.04986e-04 DIIS
   @DF-UKS iter 120: -1188.59017160088865   -3.17002e-05   1.89308e-04 DIIS
   @DF-UKS iter 121: -1188.59013910037856    3.25005e-05   2.05350e-04 DIIS
   @DF-UKS iter 122: -1188.59017150544378   -3.24051e-05   1.89329e-04 DIIS
   @DF-UKS iter 123: -1188.59014082570866    3.06797e-05   2.04587e-04 DIIS
   @DF-UKS iter 124: -1188.59017315723531   -3.23315e-05   1.88619e-04 DIIS
   @DF-UKS iter 125: -1188.59014150149233    3.16557e-05   2.04268e-04 DIIS
   @DF-UKS iter 126: -1188.59017104705777   -2.95456e-05   1.89535e-04 DIIS
   @DF-UKS iter 127: -1188.59014103561071    3.00114e-05   2.04475e-04 DIIS
   @DF-UKS iter 128: -1188.59017061038139   -2.95748e-05   1.89709e-04 DIIS
   @DF-UKS iter 129: -1188.59014227501348    2.83354e-05   2.03924e-04 DIIS
   @DF-UKS iter 130: -1188.59017165421869   -2.93792e-05   1.89258e-04 DIIS
   @DF-UKS iter 131: -1188.59014305658229    2.85976e-05   2.03564e-04 DIIS
   @DF-UKS iter 132: -1188.59017045949122   -2.74029e-05   1.89778e-04 DIIS
   @DF-UKS iter 133: -1188.59014294962685    2.75099e-05   2.03604e-04 DIIS
   @DF-UKS iter 134: -1188.59016961292673   -2.66633e-05   1.90135e-04 DIIS
   @DF-UKS iter 135: -1188.59014382476448    2.57882e-05   2.03208e-04 DIIS
   @DF-UKS iter 136: -1188.59016999763935   -2.61729e-05   1.89964e-04 DIIS
   @DF-UKS iter 137: -1188.59014482879229    2.51688e-05   2.02749e-04 DIIS
   @DF-UKS iter 138: -1188.59016936093303   -2.45321e-05   1.90241e-04 DIIS
   @DF-UKS iter 139: -1188.59014523538985    2.41255e-05   2.02553e-04 DIIS
   @DF-UKS iter 140: -1188.59016828000290   -2.30446e-05   1.90703e-04 DIIS
   @DF-UKS iter 141: -1188.59014608043344    2.21996e-05   2.02160e-04 DIIS
   @DF-UKS iter 142: -1188.59016784685537   -2.17664e-05   1.90885e-04 DIIS
   @DF-UKS iter 143: -1188.59014741532746    2.04315e-05   2.01541e-04 DIIS
   @DF-UKS iter 144: -1188.59016711531945   -1.97000e-05   1.91201e-04 DIIS
   @DF-UKS iter 145: -1188.59014867436599    1.84410e-05   2.00945e-04 DIIS
   @DF-UKS iter 146: -1188.59016568853485   -1.70142e-05   1.91819e-04 DIIS
   @DF-UKS iter 147: -1188.59015025191047    1.54366e-05   2.00190e-04 DIIS
   @DF-UKS iter 148: -1188.59016408061325   -1.38287e-05   1.92519e-04 DIIS
   @DF-UKS iter 149: -1188.59015263484298    1.14458e-05   1.99048e-04 DIIS
   @DF-UKS iter 150: -1188.59016206621959   -9.43138e-06   1.93412e-04 DIIS
   @DF-UKS iter 151: -1188.59015589888236    6.16734e-06   1.97464e-04 DIIS
   @DF-UKS iter 152: -1188.59015903588579   -3.13700e-06   1.94790e-04 DIIS
   @DF-UKS iter 153: -1188.59016049034153   -1.45446e-06   1.95208e-04 DIIS
   @DF-UKS iter 154: -1188.59015455890813    5.93143e-06   1.96921e-04 DIIS
   @DF-UKS iter 155: -1188.59016750977116   -1.29509e-05   1.91777e-04 DIIS
   @DF-UKS iter 156: -1188.59014691828361    2.05915e-05   2.00751e-04 DIIS
   @DF-UKS iter 157: -1188.59017891865460   -3.20004e-05   1.86416e-04 DIIS
   @DF-UKS iter 158: -1188.59013160409677    4.73146e-05   2.08346e-04 DIIS
   @DF-UKS iter 159: -1188.59019498719476   -6.33831e-05   1.79320e-04 DIIS
   @DF-UKS iter 160: -1188.59013232674170    6.26605e-05   2.07767e-04 DIIS
   @DF-UKS iter 161: -1188.59006666033019    6.56664e-05   2.34833e-04 DIIS
   @DF-UKS iter 162: -1188.59005720020150    9.46013e-06   2.39167e-04 DIIS
   @DF-UKS iter 163: -1188.59008303316159   -2.58330e-05   2.25829e-04 DIIS
   @DF-UKS iter 164: -1188.59013814965692   -5.51165e-05   2.04314e-04 DIIS
   @DF-UKS iter 165: -1188.59019229816158   -5.41485e-05   1.80203e-04 DIIS
   @DF-UKS iter 166: -1188.59015967103960    3.26271e-05   1.95908e-04 DIIS
   @DF-UKS iter 167: -1188.59018408481143   -2.44138e-05   1.84033e-04 DIIS
   @DF-UKS iter 168: -1188.59013452351519    4.95613e-05   2.07128e-04 DIIS
   @DF-UKS iter 169: -1188.59013171463675    2.80888e-06   2.06627e-04 DIIS
   @DF-UKS iter 170: -1188.59011814677569    1.35679e-05   2.14239e-04 DIIS
   @DF-UKS iter 171: -1188.59015789211116   -3.97453e-05   1.94900e-04 DIIS
   @DF-UKS iter 172: -1188.59015508331231    2.80880e-06   1.98278e-04 DIIS
   @DF-UKS iter 173: -1188.59019575661659   -4.06733e-05   1.78972e-04 DIIS
   @DF-UKS iter 174: -1188.59013604670463    5.97099e-05   2.06091e-04 DIIS
   @DF-UKS iter 175: -1188.59005934066954    7.67060e-05   2.38033e-04 DIIS
   @DF-UKS iter 176: -1188.59005332885704    6.01181e-06   2.40603e-04 DIIS
   @DF-UKS iter 177: -1188.59007337567391   -2.00468e-05   2.29862e-04 DIIS
   @DF-UKS iter 178: -1188.59013296175044   -5.95861e-05   2.06171e-04 DIIS
   @DF-UKS iter 179: -1188.59018553968917   -5.25779e-05   1.82715e-04 DIIS
   @DF-UKS iter 180: -1188.59018800529884   -2.46561e-06   1.83231e-04 DIIS
   @DF-UKS iter 181: -1188.59019999889142   -1.19936e-05   1.77228e-04 DIIS
   @DF-UKS iter 182: -1188.59012543395920    7.45649e-05   2.10426e-04 DIIS
   @DF-UKS iter 183: -1188.58995170239177    1.73732e-04   2.83426e-04 DIIS
   @DF-UKS iter 184: -1188.58994609679166    5.60560e-06   2.82337e-04 DIIS
   @DF-UKS iter 185: -1188.58996882756719   -2.27308e-05   2.71361e-04 DIIS
   @DF-UKS iter 186: -1188.59004631387052   -7.74863e-05   2.40021e-04 DIIS
   @DF-UKS iter 187: -1188.59011147224874   -6.51584e-05   2.12707e-04 DIIS
   @DF-UKS iter 188: -1188.59020717403882   -9.57018e-05   1.72908e-04 DIIS
   @DF-UKS iter 189: -1188.59016009129937    4.70827e-05   1.96127e-04 DIIS
   @DF-UKS iter 190: -1188.58986019529380    2.99896e-04   3.20610e-04 DIIS
   @DF-UKS iter 191: -1188.58982959790569    3.05974e-05   3.26975e-04 DIIS
   @DF-UKS iter 192: -1188.58985659602695   -2.69981e-05   3.14720e-04 DIIS
   @DF-UKS iter 193: -1188.58995282995875   -9.62339e-05   2.76575e-04 DIIS
   @DF-UKS iter 194: -1188.59000090213408   -4.80722e-05   2.58000e-04 DIIS
   @DF-UKS iter 195: -1188.59007649632508   -7.55942e-05   2.26969e-04 DIIS
   @DF-UKS iter 196: -1188.59015338862332   -7.68923e-05   1.95284e-04 DIIS
   @DF-UKS iter 197: -1188.59025613390850   -1.02745e-04   1.51501e-04 DIIS
   @DF-UKS iter 198: -1188.59015380716437    1.02327e-04   1.99859e-04 DIIS
   @DF-UKS iter 199: -1188.58984867491654    3.05132e-04   3.28734e-04 DIIS
   @DF-UKS iter 200: -1188.58983814324802    1.05317e-05   3.26895e-04 DIIS
   @DF-UKS iter 201: -1188.58981905584733    1.90874e-05   3.33899e-04 DIIS
   @DF-UKS iter 202: -1188.58982879123232   -9.73538e-06   3.29390e-04 DIIS
   @DF-UKS iter 203: -1188.58983281403766   -4.02281e-06   3.28108e-04 DIIS
   @DF-UKS iter 204: -1188.58983186410114    9.49937e-07   3.28430e-04 DIIS
   @DF-UKS iter 205: -1188.58983148409993    3.80001e-07   3.28614e-04 DIIS
   @DF-UKS iter 206: -1188.58983146645892    1.76410e-08   3.28592e-04 DIIS
   @DF-UKS iter 207: -1188.58983154740736   -8.09484e-08   3.28572e-04 DIIS
   @DF-UKS iter 208: -1188.58983153802365    9.38371e-09   3.28570e-04 DIIS
   @DF-UKS iter 209: -1188.58983153611734    1.90630e-09   3.28574e-04 DIIS
   @DF-UKS iter 210: -1188.58983153344661    2.67073e-09   3.28574e-04 DIIS
   @DF-UKS iter 211: -1188.58983153481267   -1.36606e-09   3.28574e-04 DIIS
   @DF-UKS iter 212: -1188.58983153466943    1.43245e-10   3.28574e-04 DIIS
   @DF-UKS iter 213: -1188.58983153470672   -3.72893e-11   3.28574e-04 DIIS
   @DF-UKS iter 214: -1188.58983153465988    4.68390e-11   3.28574e-04 DIIS
   @DF-UKS iter 215: -1188.58983153466488   -5.00222e-12   3.28574e-04 DIIS
   @DF-UKS iter 216: -1188.58983153467216   -7.27596e-12   3.28574e-04 DIIS
   @DF-UKS iter 217: -1188.58983153466670    5.45697e-12   3.28574e-04 DIIS
   @DF-UKS iter 218: -1188.58983153466988   -3.18323e-12   3.28574e-04 DIIS
   @DF-UKS iter 219: -1188.58983153466806    1.81899e-12   3.28574e-04 DIIS
   @DF-UKS iter 220: -1188.58983153466920   -1.13687e-12   3.28574e-04 DIIS
   @DF-UKS iter 221: -1188.58983153466897    2.27374e-13   3.28574e-04 DIIS
   @DF-UKS iter 222: -1188.58983153466852    4.54747e-13   3.28574e-04 DIIS
   @DF-UKS iter 223: -1188.58983153466852    0.00000e+00   3.28574e-04 DIIS
   @DF-UKS iter 224: -1188.58983153466897   -4.54747e-13   3.28574e-04 DIIS
   @DF-UKS iter 225: -1188.58983153466852    4.54747e-13   3.28574e-04 DIIS
   @DF-UKS iter 226: -1188.58983153466897   -4.54747e-13   3.28574e-04 DIIS
   @DF-UKS iter 227: -1188.58983153466897    0.00000e+00   3.28574e-04 DIIS
   @DF-UKS iter 228: -1188.58983153466897    0.00000e+00   3.28574e-04 DIIS
   @DF-UKS iter 229: -1188.58983153466852    4.54747e-13   3.28574e-04 DIIS
   @DF-UKS iter 230: -1188.58983153466852    0.00000e+00   3.28574e-04 DIIS
   @DF-UKS iter 231: -1188.58983153466852    0.00000e+00   3.28574e-04 DIIS
   @DF-UKS iter 232: -1188.58983153466852    0.00000e+00   3.28574e-04 DIIS
   @DF-UKS iter 233: -1188.58983153466897   -4.54747e-13   3.28574e-04 DIIS
   @DF-UKS iter 234: -1188.58983153466875    2.27374e-13   3.28574e-04 DIIS
   @DF-UKS iter 235: -1188.58983153466897   -2.27374e-13   3.28574e-04 DIIS
   @DF-UKS iter 236: -1188.58983153466806    9.09495e-13   3.28574e-04 DIIS
   @DF-UKS iter 237: -1188.58983153466829   -2.27374e-13   3.28574e-04 DIIS
   @DF-UKS iter 238: -1188.58983153466806    2.27374e-13   3.28574e-04 DIIS
   @DF-UKS iter 239: -1188.58983153466897   -9.09495e-13   3.28574e-04 DIIS
   @DF-UKS iter 240: -1188.58983153466852    4.54747e-13   3.28574e-04 DIIS
   @DF-UKS iter 241: -1188.58983153466897   -4.54747e-13   3.28574e-04 DIIS
   @DF-UKS iter 242: -1188.58983153466829    6.82121e-13   3.28574e-04 DIIS
   @DF-UKS iter 243: -1188.58983153466852   -2.27374e-13   3.28574e-04 DIIS
   @DF-UKS iter 244: -1188.58983153466897   -4.54747e-13   3.28574e-04 DIIS
   @DF-UKS iter 245: -1188.58983153466897    0.00000e+00   3.28574e-04 DIIS
   @DF-UKS iter 246: -1188.58983153466897    0.00000e+00   3.28574e-04 DIIS
   @DF-UKS iter 247: -1188.58983153466829    6.82121e-13   3.28574e-04 DIIS
   @DF-UKS iter 248: -1188.58983153466920   -9.09495e-13   3.28574e-04 DIIS
   @DF-UKS iter 249: -1188.58983153466852    6.82121e-13   3.28574e-04 DIIS
   @DF-UKS iter 250: -1188.58983153466897   -4.54747e-13   3.28574e-04 DIIS
   @DF-UKS iter 251: -1188.58983153466875    2.27374e-13   3.28574e-04 DIIS
   @DF-UKS iter 252: -1188.58983153466943   -6.82121e-13   3.28574e-04 DIIS
   @DF-UKS iter 253: -1188.58983153466943    0.00000e+00   3.28574e-04 DIIS
   @DF-UKS iter 254: -1188.58983153466943    0.00000e+00   3.28574e-04 DIIS
   @DF-UKS iter 255: -1188.58983153466897    4.54747e-13   3.28574e-04 DIIS
   @DF-UKS iter 256: -1188.58983153466852    4.54747e-13   3.28574e-04 DIIS
   @DF-UKS iter 257: -1188.58983153466852    0.00000e+00   3.28574e-04 DIIS
   @DF-UKS iter 258: -1188.58983153466806    4.54747e-13   3.28574e-04 DIIS
   @DF-UKS iter 259: -1188.58983153466897   -9.09495e-13   3.28574e-04 DIIS
   @DF-UKS iter 260: -1188.58983153466943   -4.54747e-13   3.28574e-04 DIIS
   @DF-UKS iter 261: -1188.58983153466897    4.54747e-13   3.28574e-04 DIIS
   @DF-UKS iter 262: -1188.58983153466897    0.00000e+00   3.28574e-04 DIIS
   @DF-UKS iter 263: -1188.58983153466897    0.00000e+00   3.28574e-04 DIIS
   @DF-UKS iter 264: -1188.58983153466875    2.27374e-13   3.28574e-04 DIIS
   @DF-UKS iter 265: -1188.58983153466852    2.27374e-13   3.28574e-04 DIIS
   @DF-UKS iter 266: -1188.58983153466897   -4.54747e-13   3.28574e-04 DIIS
   @DF-UKS iter 267: -1188.58983153466988   -9.09495e-13   3.28574e-04 DIIS
   @DF-UKS iter 268: -1188.58983153466897    9.09495e-13   3.28574e-04 DIIS
   @DF-UKS iter 269: -1188.58983153466852    4.54747e-13   3.28574e-04 DIIS
   @DF-UKS iter 270: -1188.58983153466897   -4.54747e-13   3.28574e-04 DIIS
   @DF-UKS iter 271: -1188.58983153466875    2.27374e-13   3.28574e-04 DIIS
   @DF-UKS iter 272: -1188.58983153466875    0.00000e+00   3.28574e-04 DIIS
   @DF-UKS iter 273: -1188.58983153466875    0.00000e+00   3.28574e-04 DIIS
   @DF-UKS iter 274: -1188.58983153466875    0.00000e+00   3.28574e-04 DIIS
   @DF-UKS iter 275: -1188.58983153466806    6.82121e-13   3.28574e-04 DIIS
   @DF-UKS iter 276: -1188.58983153466897   -9.09495e-13   3.28574e-04 DIIS
   @DF-UKS iter 277: -1188.58983153466852    4.54747e-13   3.28574e-04 DIIS
   @DF-UKS iter 278: -1188.58983153466897   -4.54747e-13   3.28574e-04 DIIS
   @DF-UKS iter 279: -1188.58983153466897    0.00000e+00   3.28574e-04 DIIS
   @DF-UKS iter 280: -1188.58983153466943   -4.54747e-13   3.28574e-04 DIIS
   @DF-UKS iter 281: -1188.58983153466875    6.82121e-13   3.28574e-04 DIIS
   @DF-UKS iter 282: -1188.58983153466897   -2.27374e-13   3.28574e-04 DIIS
   @DF-UKS iter 283: -1188.58983153466829    6.82121e-13   3.28574e-04 DIIS
   @DF-UKS iter 284: -1188.58983153466897   -6.82121e-13   3.28574e-04 DIIS
   @DF-UKS iter 285: -1188.58983153466875    2.27374e-13   3.28574e-04 DIIS
   @DF-UKS iter 286: -1188.58983153466852    2.27374e-13   3.28574e-04 DIIS
   @DF-UKS iter 287: -1188.58983153466852    0.00000e+00   3.28574e-04 DIIS
   @DF-UKS iter 288: -1188.58983153466852    0.00000e+00   3.28574e-04 DIIS
   @DF-UKS iter 289: -1188.58983153466829    2.27374e-13   3.28574e-04 DIIS
   @DF-UKS iter 290: -1188.58983153466852   -2.27374e-13   3.28574e-04 DIIS
   @DF-UKS iter 291: -1188.58983153466852    0.00000e+00   3.28574e-04 DIIS
   @DF-UKS iter 292: -1188.58983153466897   -4.54747e-13   3.28574e-04 DIIS
   @DF-UKS iter 293: -1188.58983153466943   -4.54747e-13   3.28574e-04 DIIS
   @DF-UKS iter 294: -1188.58983153466897    4.54747e-13   3.28574e-04 DIIS
   @DF-UKS iter 295: -1188.58983153466920   -2.27374e-13   3.28574e-04 DIIS
   @DF-UKS iter 296: -1188.58983153466829    9.09495e-13   3.28574e-04 DIIS
   @DF-UKS iter 297: -1188.58983153466897   -6.82121e-13   3.28574e-04 DIIS
   @DF-UKS iter 298: -1188.58983153466852    4.54747e-13   3.28574e-04 DIIS
   @DF-UKS iter 299: -1188.58983153466943   -9.09495e-13   3.28574e-04 DIIS
   @DF-UKS iter 300: -1188.58983153466920    2.27374e-13   3.28574e-04 DIIS
   @DF-UKS iter 301: -1188.58983153466897    2.27374e-13   3.28574e-04 DIIS
   @DF-UKS iter 302: -1188.58983153466943   -4.54747e-13   3.28574e-04 DIIS
   @DF-UKS iter 303: -1188.58983153466875    6.82121e-13   3.28574e-04 DIIS
   @DF-UKS iter 304: -1188.58983153466829    4.54747e-13   3.28574e-04 DIIS
   @DF-UKS iter 305: -1188.58983153466852   -2.27374e-13   3.28574e-04 DIIS
   @DF-UKS iter 306: -1188.58983153466897   -4.54747e-13   3.28574e-04 DIIS
   @DF-UKS iter 307: -1188.58983153466920   -2.27374e-13   3.28574e-04 DIIS
   @DF-UKS iter 308: -1188.58983153466829    9.09495e-13   3.28574e-04 DIIS
   @DF-UKS iter 309: -1188.58983153466852   -2.27374e-13   3.28574e-04 DIIS
   @DF-UKS iter 310: -1188.58983153466943   -9.09495e-13   3.28574e-04 DIIS
   @DF-UKS iter 311: -1188.58983153466875    6.82121e-13   3.28574e-04 DIIS
   @DF-UKS iter 312: -1188.58983153466897   -2.27374e-13   3.28574e-04 DIIS
   @DF-UKS iter 313: -1188.58983153466852    4.54747e-13   3.28574e-04 DIIS
   @DF-UKS iter 314: -1188.58983153466852    0.00000e+00   3.28574e-04 DIIS
   @DF-UKS iter 315: -1188.58983153466852    0.00000e+00   3.28574e-04 DIIS
   @DF-UKS iter 316: -1188.58983153466852    0.00000e+00   3.28574e-04 DIIS
   @DF-UKS iter 317: -1188.58983153466852    0.00000e+00   3.28574e-04 DIIS
   @DF-UKS iter 318: -1188.58983153466897   -4.54747e-13   3.28574e-04 DIIS
   @DF-UKS iter 319: -1188.58983153466806    9.09495e-13   3.28574e-04 DIIS
   @DF-UKS iter 320: -1188.58983153466897   -9.09495e-13   3.28574e-04 DIIS
   @DF-UKS iter 321: -1188.58983153466897    0.00000e+00   3.28574e-04 DIIS
   @DF-UKS iter 322: -1188.58983153466806    9.09495e-13   3.28574e-04 DIIS
   @DF-UKS iter 323: -1188.58983153466897   -9.09495e-13   3.28574e-04 DIIS
   @DF-UKS iter 324: -1188.58983153466852    4.54747e-13   3.28574e-04 DIIS
   @DF-UKS iter 325: -1188.58983153466852    0.00000e+00   3.28574e-04 DIIS
   @DF-UKS iter 326: -1188.58983153466943   -9.09495e-13   3.28574e-04 DIIS
   @DF-UKS iter 327: -1188.58983153466875    6.82121e-13   3.28574e-04 DIIS
   @DF-UKS iter 328: -1188.58983153466852    2.27374e-13   3.28574e-04 DIIS
   @DF-UKS iter 329: -1188.58983153466897   -4.54747e-13   3.28574e-04 DIIS
   @DF-UKS iter 330: -1188.58983153466897    0.00000e+00   3.28574e-04 DIIS
   @DF-UKS iter 331: -1188.58983153466943   -4.54747e-13   3.28574e-04 DIIS
   @DF-UKS iter 332: -1188.58983153466875    6.82121e-13   3.28574e-04 DIIS
   @DF-UKS iter 333: -1188.58983153466875    0.00000e+00   3.28574e-04 DIIS
   @DF-UKS iter 334: -1188.58983153466829    4.54747e-13   3.28574e-04 DIIS
   @DF-UKS iter 335: -1188.58983153466852   -2.27374e-13   3.28574e-04 DIIS
   @DF-UKS iter 336: -1188.58983153466920   -6.82121e-13   3.28574e-04 DIIS
   @DF-UKS iter 337: -1188.58983153466897    2.27374e-13   3.28574e-04 DIIS
   @DF-UKS iter 338: -1188.58983153466897    0.00000e+00   3.28574e-04 DIIS
   @DF-UKS iter 339: -1188.58983153466875    2.27374e-13   3.28574e-04 DIIS
   @DF-UKS iter 340: -1188.58983153466920   -4.54747e-13   3.28574e-04 DIIS
   @DF-UKS iter 341: -1188.58983153466875    4.54747e-13   3.28574e-04 DIIS
   @DF-UKS iter 342: -1188.58983153466852    2.27374e-13   3.28574e-04 DIIS
   @DF-UKS iter 343: -1188.58983153466897   -4.54747e-13   3.28574e-04 DIIS
   @DF-UKS iter 344: -1188.58983153466852    4.54747e-13   3.28574e-04 DIIS
   @DF-UKS iter 345: -1188.58983153466897   -4.54747e-13   3.28574e-04 DIIS
   @DF-UKS iter 346: -1188.58983153466897    0.00000e+00   3.28574e-04 DIIS
   @DF-UKS iter 347: -1188.58983153466897    0.00000e+00   3.28574e-04 DIIS
   @DF-UKS iter 348: -1188.58983153466897    0.00000e+00   3.28574e-04 DIIS
   @DF-UKS iter 349: -1188.58983153466897    0.00000e+00   3.28574e-04 DIIS
   @DF-UKS iter 350: -1188.58983153466897    0.00000e+00   3.28574e-04 DIIS
   @DF-UKS iter 351: -1188.58983153466897    0.00000e+00   3.28574e-04 DIIS
   @DF-UKS iter 352: -1188.58983153466829    6.82121e-13   3.28574e-04 DIIS
   @DF-UKS iter 353: -1188.58983153466897   -6.82121e-13   3.28574e-04 DIIS
   @DF-UKS iter 354: -1188.58983153466920   -2.27374e-13   3.28574e-04 DIIS
   @DF-UKS iter 355: -1188.58983153466875    4.54747e-13   3.28574e-04 DIIS
   @DF-UKS iter 356: -1188.58983153466897   -2.27374e-13   3.28574e-04 DIIS
   @DF-UKS iter 357: -1188.58983153466875    2.27374e-13   3.28574e-04 DIIS
   @DF-UKS iter 358: -1188.58983153466829    4.54747e-13   3.28574e-04 DIIS
   @DF-UKS iter 359: -1188.58983153466829    0.00000e+00   3.28574e-04 DIIS
   @DF-UKS iter 360: -1188.58983153466897   -6.82121e-13   3.28574e-04 DIIS
   @DF-UKS iter 361: -1188.58983153466897    0.00000e+00   3.28574e-04 DIIS
   @DF-UKS iter 362: -1188.58983153466943   -4.54747e-13   3.28574e-04 DIIS
   @DF-UKS iter 363: -1188.58983153466897    4.54747e-13   3.28574e-04 DIIS
   @DF-UKS iter 364: -1188.58983153466897    0.00000e+00   3.28574e-04 DIIS
   @DF-UKS iter 365: -1188.58983153466852    4.54747e-13   3.28574e-04 DIIS
   @DF-UKS iter 366: -1188.58983153466897   -4.54747e-13   3.28574e-04 DIIS
   @DF-UKS iter 367: -1188.58983153466829    6.82121e-13   3.28574e-04 DIIS
   @DF-UKS iter 368: -1188.58983153466966   -1.36424e-12   3.28574e-04 DIIS
   @DF-UKS iter 369: -1188.58983153466920    4.54747e-13   3.28574e-04 DIIS
   @DF-UKS iter 370: -1188.58983153466806    1.13687e-12   3.28574e-04 DIIS
   @DF-UKS iter 371: -1188.58983153466897   -9.09495e-13   3.28574e-04 DIIS
   @DF-UKS iter 372: -1188.58983153466897    0.00000e+00   3.28574e-04 DIIS
   @DF-UKS iter 373: -1188.58983153466897    0.00000e+00   3.28574e-04 DIIS
   @DF-UKS iter 374: -1188.58983153466806    9.09495e-13   3.28574e-04 DIIS
   @DF-UKS iter 375: -1188.58983153466875   -6.82121e-13   3.28574e-04 DIIS
   @DF-UKS iter 376: -1188.58983153466943   -6.82121e-13   3.28574e-04 DIIS
   @DF-UKS iter 377: -1188.58983153466852    9.09495e-13   3.28574e-04 DIIS
   @DF-UKS iter 378: -1188.58983153466806    4.54747e-13   3.28574e-04 DIIS
   @DF-UKS iter 379: -1188.58983153466897   -9.09495e-13   3.28574e-04 DIIS
   @DF-UKS iter 380: -1188.58983153466852    4.54747e-13   3.28574e-04 DIIS
   @DF-UKS iter 381: -1188.58983153466897   -4.54747e-13   3.28574e-04 DIIS
   @DF-UKS iter 382: -1188.58983153466897    0.00000e+00   3.28574e-04 DIIS
   @DF-UKS iter 383: -1188.58983153466875    2.27374e-13   3.28574e-04 DIIS
   @DF-UKS iter 384: -1188.58983153466897   -2.27374e-13   3.28574e-04 DIIS
   @DF-UKS iter 385: -1188.58983153466852    4.54747e-13   3.28574e-04 DIIS
   @DF-UKS iter 386: -1188.58983153466897   -4.54747e-13   3.28574e-04 DIIS
   @DF-UKS iter 387: -1188.58983153466852    4.54747e-13   3.28574e-04 DIIS
   @DF-UKS iter 388: -1188.58983153466875   -2.27374e-13   3.28574e-04 DIIS
   @DF-UKS iter 389: -1188.58983153466806    6.82121e-13   3.28574e-04 DIIS
   @DF-UKS iter 390: -1188.58983153466806    0.00000e+00   3.28574e-04 DIIS
   @DF-UKS iter 391: -1188.58983153466920   -1.13687e-12   3.28574e-04 DIIS
   @DF-UKS iter 392: -1188.58983153466897    2.27374e-13   3.28574e-04 DIIS
   @DF-UKS iter 393: -1188.58983153466852    4.54747e-13   3.28574e-04 DIIS
   @DF-UKS iter 394: -1188.58983153466852    0.00000e+00   3.28574e-04 DIIS
   @DF-UKS iter 395: -1188.58983153466897   -4.54747e-13   3.28574e-04 DIIS
   @DF-UKS iter 396: -1188.58983153466943   -4.54747e-13   3.28574e-04 DIIS
   @DF-UKS iter 397: -1188.58983153466761    1.81899e-12   3.28574e-04 DIIS
   @DF-UKS iter 398: -1188.58983153466897   -1.36424e-12   3.28574e-04 DIIS
   @DF-UKS iter 399: -1188.58983153466852    4.54747e-13   3.28574e-04 DIIS
   @DF-UKS iter 400: -1188.58983153466897   -4.54747e-13   3.28574e-04 DIIS
   @DF-UKS iter 401: -1188.58983153466897    0.00000e+00   3.28574e-04 DIIS
   @DF-UKS iter 402: -1188.58983153466875    2.27374e-13   3.28574e-04 DIIS
   @DF-UKS iter 403: -1188.58983153466943   -6.82121e-13   3.28574e-04 DIIS
   @DF-UKS iter 404: -1188.58983153466852    9.09495e-13   3.28574e-04 DIIS
   @DF-UKS iter 405: -1188.58983153466852    0.00000e+00   3.28574e-04 DIIS
   @DF-UKS iter 406: -1188.58983153466852    0.00000e+00   3.28574e-04 DIIS
   @DF-UKS iter 407: -1188.58983153466897   -4.54747e-13   3.28574e-04 DIIS
   @DF-UKS iter 408: -1188.58983153466852    4.54747e-13   3.28574e-04 DIIS
   @DF-UKS iter 409: -1188.58983153466875   -2.27374e-13   3.28574e-04 DIIS
   @DF-UKS iter 410: -1188.58983153466897   -2.27374e-13   3.28574e-04 DIIS
   @DF-UKS iter 411: -1188.58983153466875    2.27374e-13   3.28574e-04 DIIS
   @DF-UKS iter 412: -1188.58983153466875    0.00000e+00   3.28574e-04 DIIS
   @DF-UKS iter 413: -1188.58983153466852    2.27374e-13   3.28574e-04 DIIS
   @DF-UKS iter 414: -1188.58983153466875   -2.27374e-13   3.28574e-04 DIIS
   @DF-UKS iter 415: -1188.58983153466897   -2.27374e-13   3.28574e-04 DIIS
   @DF-UKS iter 416: -1188.58983153466761    1.36424e-12   3.28574e-04 DIIS
   @DF-UKS iter 417: -1188.58983153466897   -1.36424e-12   3.28574e-04 DIIS
   @DF-UKS iter 418: -1188.58983153466852    4.54747e-13   3.28574e-04 DIIS
   @DF-UKS iter 419: -1188.58983153466943   -9.09495e-13   3.28574e-04 DIIS
   @DF-UKS iter 420: -1188.58983153466897    4.54747e-13   3.28574e-04 DIIS
   @DF-UKS iter 421: -1188.58983153466852    4.54747e-13   3.28574e-04 DIIS
   @DF-UKS iter 422: -1188.58983153466897   -4.54747e-13   3.28574e-04 DIIS
   @DF-UKS iter 423: -1188.58983153466897    0.00000e+00   3.28574e-04 DIIS
   @DF-UKS iter 424: -1188.58983153466897    0.00000e+00   3.28574e-04 DIIS
   @DF-UKS iter 425: -1188.58983153466875    2.27374e-13   3.28574e-04 DIIS
   @DF-UKS iter 426: -1188.58983153466920   -4.54747e-13   3.28574e-04 DIIS
   @DF-UKS iter 427: -1188.58983153466897    2.27374e-13   3.28574e-04 DIIS
   @DF-UKS iter 428: -1188.58983153466852    4.54747e-13   3.28574e-04 DIIS
   @DF-UKS iter 429: -1188.58983153466852    0.00000e+00   3.28574e-04 DIIS
   @DF-UKS iter 430: -1188.58983153466875   -2.27374e-13   3.28574e-04 DIIS
   @DF-UKS iter 431: -1188.58983153466897   -2.27374e-13   3.28574e-04 DIIS
   @DF-UKS iter 432: -1188.58983153466897    0.00000e+00   3.28574e-04 DIIS
   @DF-UKS iter 433: -1188.58983153466806    9.09495e-13   3.28574e-04 DIIS
   @DF-UKS iter 434: -1188.58983153466897   -9.09495e-13   3.28574e-04 DIIS
   @DF-UKS iter 435: -1188.58983153466852    4.54747e-13   3.28574e-04 DIIS
   @DF-UKS iter 436: -1188.58983153466897   -4.54747e-13   3.28574e-04 DIIS
   @DF-UKS iter 437: -1188.58983153466920   -2.27374e-13   3.28574e-04 DIIS
   @DF-UKS iter 438: -1188.58983153466852    6.82121e-13   3.28574e-04 DIIS
   @DF-UKS iter 439: -1188.58983153466897   -4.54747e-13   3.28574e-04 DIIS
   @DF-UKS iter 440: -1188.58983153466943   -4.54747e-13   3.28574e-04 DIIS
   @DF-UKS iter 441: -1188.58983153466852    9.09495e-13   3.28574e-04 DIIS
   @DF-UKS iter 442: -1188.58983153466897   -4.54747e-13   3.28574e-04 DIIS
   @DF-UKS iter 443: -1188.58983153466897    0.00000e+00   3.28574e-04 DIIS
   @DF-UKS iter 444: -1188.58983153466943   -4.54747e-13   3.28574e-04 DIIS
   @DF-UKS iter 445: -1188.58983153466852    9.09495e-13   3.28574e-04 DIIS
   @DF-UKS iter 446: -1188.58983153466852    0.00000e+00   3.28574e-04 DIIS
   @DF-UKS iter 447: -1188.58983153466806    4.54747e-13   3.28574e-04 DIIS
   @DF-UKS iter 448: -1188.58983153466943   -1.36424e-12   3.28574e-04 DIIS
   @DF-UKS iter 449: -1188.58983153466852    9.09495e-13   3.28574e-04 DIIS
   @DF-UKS iter 450: -1188.58983153466852    0.00000e+00   3.28574e-04 DIIS
   @DF-UKS iter 451: -1188.58983153466852    0.00000e+00   3.28574e-04 DIIS
   @DF-UKS iter 452: -1188.58983153466943   -9.09495e-13   3.28574e-04 DIIS
   @DF-UKS iter 453: -1188.58983153466875    6.82121e-13   3.28574e-04 DIIS
   @DF-UKS iter 454: -1188.58983153466852    2.27374e-13   3.28574e-04 DIIS
   @DF-UKS iter 455: -1188.58983153466920   -6.82121e-13   3.28574e-04 DIIS
   @DF-UKS iter 456: -1188.58983153466920    0.00000e+00   3.28574e-04 DIIS
   @DF-UKS iter 457: -1188.58983153466897    2.27374e-13   3.28574e-04 DIIS
   @DF-UKS iter 458: -1188.58983153466897    0.00000e+00   3.28574e-04 DIIS
   @DF-UKS iter 459: -1188.58983153466875    2.27374e-13   3.28574e-04 DIIS
   @DF-UKS iter 460: -1188.58983153466875    0.00000e+00   3.28574e-04 DIIS
   @DF-UKS iter 461: -1188.58983153466852    2.27374e-13   3.28574e-04 DIIS
   @DF-UKS iter 462: -1188.58983153466897   -4.54747e-13   3.28574e-04 DIIS
   @DF-UKS iter 463: -1188.58983153466875    2.27374e-13   3.28574e-04 DIIS
   @DF-UKS iter 464: -1188.58983153466897   -2.27374e-13   3.28574e-04 DIIS
   @DF-UKS iter 465: -1188.58983153466806    9.09495e-13   3.28574e-04 DIIS
   @DF-UKS iter 466: -1188.58983153466852   -4.54747e-13   3.28574e-04 DIIS
   @DF-UKS iter 467: -1188.58983153466943   -9.09495e-13   3.28574e-04 DIIS
   @DF-UKS iter 468: -1188.58983153466897    4.54747e-13   3.28574e-04 DIIS
   @DF-UKS iter 469: -1188.58983153466920   -2.27374e-13   3.28574e-04 DIIS
   @DF-UKS iter 470: -1188.58983153466943   -2.27374e-13   3.28574e-04 DIIS
   @DF-UKS iter 471: -1188.58983153466875    6.82121e-13   3.28574e-04 DIIS
   @DF-UKS iter 472: -1188.58983153466852    2.27374e-13   3.28574e-04 DIIS
   @DF-UKS iter 473: -1188.58983153466852    0.00000e+00   3.28574e-04 DIIS
   @DF-UKS iter 474: -1188.58983153466852    0.00000e+00   3.28574e-04 DIIS
   @DF-UKS iter 475: -1188.58983153466920   -6.82121e-13   3.28574e-04 DIIS
   @DF-UKS iter 476: -1188.58983153466852    6.82121e-13   3.28574e-04 DIIS
   @DF-UKS iter 477: -1188.58983153466897   -4.54747e-13   3.28574e-04 DIIS
   @DF-UKS iter 478: -1188.58983153466852    4.54747e-13   3.28574e-04 DIIS
   @DF-UKS iter 479: -1188.58983153466897   -4.54747e-13   3.28574e-04 DIIS
   @DF-UKS iter 480: -1188.58983153466920   -2.27374e-13   3.28574e-04 DIIS
   @DF-UKS iter 481: -1188.58983153466920    0.00000e+00   3.28574e-04 DIIS
   @DF-UKS iter 482: -1188.58983153466806    1.13687e-12   3.28574e-04 DIIS
   @DF-UKS iter 483: -1188.58983153466943   -1.36424e-12   3.28574e-04 DIIS
   @DF-UKS iter 484: -1188.58983153466897    4.54747e-13   3.28574e-04 DIIS
   @DF-UKS iter 485: -1188.58983153466806    9.09495e-13   3.28574e-04 DIIS
   @DF-UKS iter 486: -1188.58983153466852   -4.54747e-13   3.28574e-04 DIIS
   @DF-UKS iter 487: -1188.58983153466875   -2.27374e-13   3.28574e-04 DIIS
   @DF-UKS iter 488: -1188.58983153466852    2.27374e-13   3.28574e-04 DIIS
   @DF-UKS iter 489: -1188.58983153466852    0.00000e+00   3.28574e-04 DIIS
   @DF-UKS iter 490: -1188.58983153466897   -4.54747e-13   3.28574e-04 DIIS
   @DF-UKS iter 491: -1188.58983153466897    0.00000e+00   3.28574e-04 DIIS
   @DF-UKS iter 492: -1188.58983153466897    0.00000e+00   3.28574e-04 DIIS
   @DF-UKS iter 493: -1188.58983153466897    0.00000e+00   3.28574e-04 DIIS
   @DF-UKS iter 494: -1188.58983153466852    4.54747e-13   3.28574e-04 DIIS
   @DF-UKS iter 495: -1188.58983153466852    0.00000e+00   3.28574e-04 DIIS
   @DF-UKS iter 496: -1188.58983153466852    0.00000e+00   3.28574e-04 DIIS
   @DF-UKS iter 497: -1188.58983153466852    0.00000e+00   3.28574e-04 DIIS
   @DF-UKS iter 498: -1188.58983153466897   -4.54747e-13   3.28574e-04 DIIS
   @DF-UKS iter 499: -1188.58983153466897    0.00000e+00   3.28574e-04 DIIS
   @DF-UKS iter 500: -1188.58983153466943   -4.54747e-13   3.28574e-04 DIIS

PsiException: Could not converge SCF iterations in 500 iterations.

  Failed to converge.

Traceback (most recent call last):
  File "/apps/gb/PSI4/1.4.0/bin/psi4", line 331, in <module>
    exec(content)
  File "<string>", line 37, in <module>
  File "/apps/gb/PSI4/1.4.0/lib//python3.6/site-packages/psi4/driver/driver.py", line 1071, in optimize
    G, wfn = gradient(lowername, return_wfn=True, molecule=moleculeclone, **kwargs)
  File "/apps/gb/PSI4/1.4.0/lib//python3.6/site-packages/psi4/driver/driver.py", line 707, in gradient
    wfn = procedures['gradient'][lowername](lowername, molecule=molecule, **kwargs)
  File "/apps/gb/PSI4/1.4.0/lib//python3.6/site-packages/psi4/driver/procrouting/proc.py", line 2172, in run_scf_gradient
    ref_wfn = run_scf(name, **kwargs)
  File "/apps/gb/PSI4/1.4.0/lib//python3.6/site-packages/psi4/driver/procrouting/proc.py", line 2077, in run_scf
    scf_wfn = scf_helper(name, post_scf=False, **kwargs)
  File "/apps/gb/PSI4/1.4.0/lib//python3.6/site-packages/psi4/driver/procrouting/proc.py", line 1264, in scf_helper
    ref_wfn.compute_energy()
  File "/apps/gb/PSI4/1.4.0/lib//python3.6/site-packages/psi4/driver/procrouting/scf_proc/scf_iterator.py", line 93, in scf_compute_energy
    raise e
  File "/apps/gb/PSI4/1.4.0/lib//python3.6/site-packages/psi4/driver/procrouting/scf_proc/scf_iterator.py", line 86, in scf_compute_energy
    self.iterations()
  File "/apps/gb/PSI4/1.4.0/lib//python3.6/site-packages/psi4/driver/procrouting/scf_proc/scf_iterator.py", line 460, in scf_iterate
    raise SCFConvergenceError("""SCF iterations""", self.iteration_, self, Ediff, Dnorm)

psi4.driver.p4util.exceptions.SCFConvergenceError: Could not converge SCF iterations in 500 iterations.


Printing out the relevant lines from the Psithon --> Python processed input file:
    core.set_global_option("G_CONVERGENCE", "gau_verytight")
    core.set_global_option("DFT_SPHERICAL_POINTS", 590)
    core.set_global_option("DFT_RADIAL_POINTS", 99)
    core.set_global_option("MAXITER", 500)
    core.set_global_option("BASIS_GUESS", "true")
--> optimize('wb97x-d')
    frequencies('wb97x-d')

    Psi4 stopped on: Wednesday, 03 February 2021 12:13PM
    Psi4 wall time for execution: 0:07:25.07

*** Psi4 encountered an error. Buy a developer more coffee!
*** Resources and help at github.com/psi4/psi4.
