
    -----------------------------------------------------------------------
          Psi4: An Open-Source Ab Initio Electronic Structure Package
                               Psi4 1.4a2.dev191 

                         Git: Rev {master} 0ab5346 


    R. M. Parrish, L. A. Burns, D. G. A. Smith, A. C. Simmonett,
    A. E. DePrince III, E. G. Hohenstein, U. Bozkaya, A. Yu. Sokolov,
    R. Di Remigio, R. M. Richard, J. F. Gonthier, A. M. James,
    H. R. McAlexander, A. Kumar, M. Saitow, X. Wang, B. P. Pritchard,
    P. Verma, H. F. Schaefer III, K. Patkowski, R. A. King, E. F. Valeev,
    F. A. Evangelista, J. M. Turney, T. D. Crawford, and C. D. Sherrill,
    J. Chem. Theory Comput. 13(7) pp 3185--3197 (2017).
    (doi: 10.1021/acs.jctc.7b00174)


                         Additional Contributions by
    P. Kraus, H. Kruse, M. H. Lechner, M. C. Schieber, R. A. Shaw,
    A. Alenaizan, R. Galvelis, Z. L. Glick, S. Lehtola, and J. P. Misiewicz

    -----------------------------------------------------------------------


    Psi4 started on: Wednesday, 03 February 2021 05:10PM

    Process ID: 22184
    Host:       d5-15.compute.lan
    PSIDATADIR: /apps/gb/PSI4/1.4.0/share/psi4
    Memory:     500.0 MiB
    Threads:    1
    
  ==> Input File <==

--------------------------------------------------------------------------
memory 10 GB

molecule  {
0 3
S
S 1 r1
r1 = 2.0
}

set {
reference uks
basis aug-cc-pvtz
g_convergence gau_verytight
dft_spherical_points 590
dft_radial_points 99
}

optimize('wb97m-v')
frequencies('wb97m-v')

--------------------------------------------------------------------------

  Memory set to   9.313 GiB by Python driver.
gradient() will perform gradient computation by finite difference of analytic energies.

         ----------------------------------------------------------
                                   FINDIF
                     R. A. King and Jonathon Misiewicz
         ---------------------------------------------------------

  Using finite-differences of energies to determine gradients.
    Generating geometries for use with 3-point formula.
    Displacement size will be 5.00e-03.
    Number of atoms is 2.
    Number of symmetric SALCs is 1.
    Translations projected? 1. Rotations projected? 1.
    Number of geometries (including reference) is 3.

  //>>>>>>>>>>>>>>>>>>>>>>>>>>>>>>>>>>>//
  //    Loading displacement 1 of 3    //
  //<<<<<<<<<<<<<<<<<<<<<<<<<<<<<<<<<<<//

*** tstart() called on d5-15.compute.lan
*** at Wed Feb  3 17:10:27 2021

   => Loading Basis Set <=

    Name: AUG-CC-PVTZ
    Role: ORBITAL
    Keyword: BASIS
    atoms 1-2 entry S          line   906 file /apps/gb/PSI4/1.4.0/share/psi4/basis/aug-cc-pvtz.gbs 


         ---------------------------------------------------------
                                   SCF
               by Justin Turney, Rob Parrish, Andy Simmonett
                          and Daniel G. A. Smith
                              UKS Reference
                        1 Threads,   9536 MiB Core
         ---------------------------------------------------------

  ==> Geometry <==

    Molecular point group: d2h
    Full point group: D_inf_h

    Geometry (in Angstrom), charge = 0, multiplicity = 3:

       Center              X                  Y                   Z               Mass       
    ------------   -----------------  -----------------  -----------------  -----------------
         S            0.000000000000     0.000000000000    -1.000000000000    31.972071174400
         S            0.000000000000     0.000000000000     1.000000000000    31.972071174400

  Running in d2h symmetry.

  Rotational constants: A = ************  B =      0.26363  C =      0.26363 [cm^-1]
  Rotational constants: A = ************  B =   7903.44495  C =   7903.44495 [MHz]
  Nuclear repulsion =   67.734682965759930

  Charge       = 0
  Multiplicity = 3
  Electrons    = 32
  Nalpha       = 17
  Nbeta        = 15

  ==> Algorithm <==

  SCF Algorithm Type is DF.
  DIIS enabled.
  MOM disabled.
  Fractional occupation disabled.
  Guess Type is SAD.
  Energy threshold   = 1.00e-08
  Density threshold  = 1.00e-08
  Integral threshold = 0.00e+00

  ==> Primary Basis <==

  Basis Set: AUG-CC-PVTZ
    Blend: AUG-CC-PVTZ
    Number of shells: 32
    Number of basis function: 100
    Number of Cartesian functions: 118
    Spherical Harmonics?: true
    Max angular momentum: 3

  ==> DFT Potential <==

   => Composite Functional: WB97M-V <= 

    wB97M-V Hyb-GGA Exchange-Correlation Functional

    N. Mardirossian and M. Head-Gordon, J. Chem. Phys. 144, 214110 (2016)

    Deriv               =              1
    GGA                 =           TRUE
    Meta                =           TRUE

    Exchange Hybrid     =           TRUE
    MP2 Hybrid          =          FALSE

   => Exchange-Correlation Functionals <=

    1.0000   wB97M-V exchange-correlation functional

   => Exact (HF) Exchange <=

    0.8500            HF,LR [omega = 0.3000]
    0.1500               HF 

   => VV10 Non-Local Parameters <=

    VV10 B              =     6.0000E+00
    VV10 C              =     1.0000E-02

   => Molecular Quadrature <=

    Radial Scheme          =       TREUTLER
    Pruning Scheme         =           NONE
    Nuclear Scheme         =       TREUTLER

    BS radius alpha        =              1
    Pruning alpha          =              1
    Radial Points          =             99
    Spherical Points       =            590
    Total Points           =         113376
    Total Blocks           =            984
    Max Points             =            255
    Max Functions          =            100
    Weights Tolerance      =       1.00E-15

   => Loading Basis Set <=

    Name: (AUG-CC-PVTZ AUX)
    Role: JKFIT
    Keyword: DF_BASIS_SCF
    atoms 1-2 entry S          line   730 file /apps/gb/PSI4/1.4.0/share/psi4/basis/aug-cc-pvtz-jkfit.gbs 

  ==> Pre-Iterations <==

   -------------------------------------------------------
    Irrep   Nso     Nmo     Nalpha   Nbeta   Ndocc  Nsocc
   -------------------------------------------------------
     Ag        21      21       0       0       0       0
     B1g        5       5       0       0       0       0
     B2g       12      12       0       0       0       0
     B3g       12      12       0       0       0       0
     Au         5       5       0       0       0       0
     B1u       21      21       0       0       0       0
     B2u       12      12       0       0       0       0
     B3u       12      12       0       0       0       0
   -------------------------------------------------------
    Total     100     100      17      15      15       2
   -------------------------------------------------------

  ==> Integral Setup <==

  ==> DiskDFJK: Density-Fitted J/K Matrices <==

    J tasked:                  Yes
    K tasked:                  Yes
    wK tasked:                 Yes
    Omega:               3.000E-01
    OpenMP threads:              1
    Integrals threads:           1
    Memory [MiB]:             6378
    Algorithm:                Core
    Integral Cache:           NONE
    Schwarz Cutoff:          1E-12
    Fitting Condition:       1E-10

   => Auxiliary Basis Set <=

  Basis Set: (AUG-CC-PVTZ AUX)
    Blend: AUG-CC-PVTZ-JKFIT
    Number of shells: 84
    Number of basis function: 292
    Number of Cartesian functions: 360
    Spherical Harmonics?: true
    Max angular momentum: 4

  Cached 100.0% of DFT collocation blocks in 0.756 [GiB].

  Minimum eigenvalue in the overlap matrix is 2.7190206739E-04.
  Using Symmetric Orthogonalization.

  SCF Guess: Superposition of Atomic Densities via on-the-fly atomic UHF.

  ==> Iterations <==

                           Total Energy        Delta E     RMS |[F,P]|

   @DF-UKS iter SAD:  -795.86916376917725   -7.95869e+02   0.00000e+00 
   @DF-UKS iter   1:  -796.33996470512989   -4.70801e-01   5.58960e-03 DIIS
   @DF-UKS iter   2:  -796.35322494017441   -1.32602e-02   1.87271e-03 DIIS
   @DF-UKS iter   3:  -796.35462113527092   -1.39620e-03   2.17150e-04 DIIS
   @DF-UKS iter   4:  -796.35474440480357   -1.23270e-04   3.79871e-05 DIIS
   @DF-UKS iter   5:  -796.35474758867190   -3.18387e-06   1.51352e-05 DIIS
   @DF-UKS iter   6:  -796.35474787208125   -2.83409e-07   2.88506e-06 DIIS
   @DF-UKS iter   7:  -796.35474789251725   -2.04360e-08   4.73490e-07 DIIS
   @DF-UKS iter   8:  -796.35474789316208   -6.44832e-10   5.89946e-08 DIIS
   @DF-UKS iter   9:  -796.35474789317232   -1.02318e-11   7.91220e-09 DIIS
  Energy and wave function converged.


  ==> Post-Iterations <==

   @Spin Contamination Metric:   9.500585684E-03
   @S^2 Expected:                2.000000000E+00
   @S^2 Observed:                2.009500586E+00
   @S   Expected:                1.000000000E+00
   @S   Observed:                1.000000000E+00

    Orbital Energies [Eh]
    ---------------------

    Alpha Occupied:                                                       

       1B1u  -89.270293     1Ag   -89.270290     2Ag    -8.178753  
       2B1u   -8.178674     1B2u   -6.088010     1B3u   -6.088010  
       1B3g   -6.087995     1B2g   -6.087995     3Ag    -6.086514  
       3B1u   -6.086159     4Ag    -0.936940     4B1u   -0.758017  
       5Ag    -0.488148     2B3u   -0.467279     2B2u   -0.467279  
       2B3g   -0.344563     2B2g   -0.344563  

    Alpha Virtual:                                                        

       5B1u    0.018715     6Ag     0.064967     3B3u    0.067881  
       3B2u    0.067881     6B1u    0.077494     7Ag     0.084552  
       3B2g    0.094760     3B3g    0.094760     8Ag     0.185708  
       1B1g    0.185708     7B1u    0.193039     4B2u    0.230453  
       4B3u    0.230453     9Ag     0.277443     1Au     0.288268  
       8B1u    0.288268     9B1u    0.346322     4B3g    0.355702  
       4B2g    0.355702     5B3u    0.453199     5B2u    0.453199  
       6B2u    0.542217     6B3u    0.542217    10B1u    0.552550  
      10Ag     0.556270    11Ag     0.559094     5B2g    0.562883  
       5B3g    0.562883    12Ag     0.568381     2B1g    0.568382  
       2Au     0.645807    11B1u    0.645810    13Ag     0.646618  
       7B3u    0.703936     7B2u    0.703936     6B3g    0.725056  
       6B2g    0.725056     3B1g    0.764350    14Ag     0.764355  
      12B1u    0.830829     7B2g    0.843299     7B3g    0.843299  
       8B3u    0.997702     8B2u    0.997702    13B1u    1.032530  
       3Au     1.032540    14B1u    1.041535     8B2g    1.194432  
       8B3g    1.194432    15Ag     1.255601    15B1u    1.413862  
       4B1g    1.735065    16Ag     1.735072     4Au     1.808124  
      16B1u    1.808132    17B1u    1.809161     9B3u    1.811154  
       9B2u    1.811154     9B2g    1.927922     9B3g    1.927922  
      17Ag     1.935988    10B2u    1.993993    10B3u    1.993993  
       5B1g    2.031454    18Ag     2.031456    19Ag     2.044415  
      11B2u    2.050513    11B3u    2.050513    12B2u    2.071530  
      12B3u    2.071530    10B3g    2.131331    10B2g    2.131331  
      18B1u    2.265735     5Au     2.265741    11B2g    2.280160  
      11B3g    2.280160    19B1u    2.393757    20Ag     2.489290  
      12B3g    2.571132    12B2g    2.571132    20B1u    3.636148  
      21Ag     4.455778    21B1u    5.283917  

    Beta Occupied:                                                        

       1B1u  -89.263986     1Ag   -89.263985     2Ag    -8.172481  
       2B1u   -8.172335     3Ag    -6.082597     3B1u   -6.082243  
       1B2u   -6.074441     1B3u   -6.074441     1B3g   -6.074414  
       1B2g   -6.074414     4Ag    -0.908973     4B1u   -0.702859  
       5Ag    -0.463514     2B3u   -0.407713     2B2u   -0.407713  

    Beta Virtual:                                                         

       2B2g   -0.074536     2B3g   -0.074536     5B1u    0.023013  
       6Ag     0.063980     3B3u    0.068007     3B2u    0.068007  
       7Ag     0.087752     6B1u    0.090570     3B2g    0.095904  
       3B3g    0.095904     1B1g    0.193448     8Ag     0.193448  
       7B1u    0.193711     4B2u    0.248085     4B3u    0.248085  
       9Ag     0.281929     1Au     0.296327     8B1u    0.296327  
       9B1u    0.348965     4B3g    0.358316     4B2g    0.358316  
       5B3u    0.464111     5B2u    0.464111    10Ag     0.553102  
      10B1u    0.560573     6B2u    0.561392     6B3u    0.561392  
       5B2g    0.569016     5B3g    0.569016    11Ag     0.571825  
      12Ag     0.588099     2B1g    0.588099    13Ag     0.663131  
       2Au     0.680664    11B1u    0.680668     7B3u    0.708956  
       7B2u    0.708956     6B3g    0.746881     6B2g    0.746881  
       3B1g    0.776056    14Ag     0.776061    12B1u    0.847064  
       7B2g    0.849777     7B3g    0.849777     8B2u    1.004125  
       8B3u    1.004125    13B1u    1.037760     3Au     1.037771  
      14B1u    1.046378     8B2g    1.206575     8B3g    1.206575  
      15Ag     1.282192    15B1u    1.447118     4B1g    1.790446  
      16Ag     1.790456    16B1u    1.823561     9B3u    1.831676  
       9B2u    1.831676     4Au     1.863205    17B1u    1.863216  
      17Ag     1.946568     9B2g    1.975285     9B3g    1.975285  
      10B2u    2.015077    10B3u    2.015077     5B1g    2.061361  
      18Ag     2.061363    19Ag     2.061403    11B2u    2.108968  
      11B3u    2.108968    12B2u    2.124071    12B3u    2.124071  
      10B3g    2.182032    10B2g    2.182032    18B1u    2.298594  
       5Au     2.298601    11B2g    2.312438    11B3g    2.312438  
      19B1u    2.414842    20Ag     2.506140    12B3g    2.600362  
      12B2g    2.600362    20B1u    3.644756    21Ag     4.482592  
      21B1u    5.306814  

    Final Occupation by Irrep:
             Ag   B1g   B2g   B3g    Au   B1u   B2u   B3u 
    DOCC [     5,    0,    1,    1,    0,    4,    2,    2 ]
    SOCC [     0,    0,    1,    1,    0,    0,    0,    0 ]

  @DF-UKS Final Energy:  -796.35474789317232

   => Energetics <=

    Nuclear Repulsion Energy =             67.7346829657599301
    One-Electron Energy =               -1233.9779067380259221
    Two-Electron Energy =                 409.2872393135864399
    DFT Exchange-Correlation Energy =     -39.5324863009912377
    Empirical Dispersion Energy =           0.0000000000000000
    VV10 Nonlocal Energy =                  0.1337228664983207
    Total Energy =                       -796.3547478931723163

  UHF NO Occupations:
  HONO-2 :    2B3u 1.9978748
  HONO-1 :    2B3g 1.0000000
  HONO-0 :    2B2g 1.0000000
  LUNO+0 :    3B3u 0.0021252
  LUNO+1 :    3B2u 0.0021252
  LUNO+2 :    5B1u 0.0002510
  LUNO+3 :    6 Ag 0.0002016


Computation Completed


Properties will be evaluated at   0.000000,   0.000000,   0.000000 [a0]

Properties computed using the SCF density matrix

  Nuclear Dipole Moment: [e a0]
     X:     0.0000      Y:     0.0000      Z:     0.0000

  Electronic Dipole Moment: [e a0]
     X:     0.0000      Y:     0.0000      Z:     0.0000

  Dipole Moment: [e a0]
     X:     0.0000      Y:     0.0000      Z:     0.0000     Total:     0.0000

  Dipole Moment: [D]
     X:     0.0000      Y:     0.0000      Z:     0.0000     Total:     0.0000


*** tstop() called on d5-15.compute.lan at Wed Feb  3 17:11:17 2021
Module time:
	user time   =      49.86 seconds =       0.83 minutes
	system time =       0.25 seconds =       0.00 minutes
	total time  =         50 seconds =       0.83 minutes
Total time:
	user time   =      49.86 seconds =       0.83 minutes
	system time =       0.25 seconds =       0.00 minutes
	total time  =         50 seconds =       0.83 minutes

  //>>>>>>>>>>>>>>>>>>>>>>>>>>>>>>>>>>>//
  //    Loading displacement 2 of 3    //
  //<<<<<<<<<<<<<<<<<<<<<<<<<<<<<<<<<<<//

*** tstart() called on d5-15.compute.lan
*** at Wed Feb  3 17:11:17 2021

   => Loading Basis Set <=

    Name: AUG-CC-PVTZ
    Role: ORBITAL
    Keyword: BASIS
    atoms 1-2 entry S          line   906 file /apps/gb/PSI4/1.4.0/share/psi4/basis/aug-cc-pvtz.gbs 


         ---------------------------------------------------------
                                   SCF
               by Justin Turney, Rob Parrish, Andy Simmonett
                          and Daniel G. A. Smith
                              UKS Reference
                        1 Threads,   9536 MiB Core
         ---------------------------------------------------------

  ==> Geometry <==

    Molecular point group: d2h
    Full point group: D_inf_h

    Geometry (in Angstrom), charge = 0, multiplicity = 3:

       Center              X                  Y                   Z               Mass       
    ------------   -----------------  -----------------  -----------------  -----------------
         S            0.000000000000     0.000000000000    -1.000330880180    31.972071174400
         S            0.000000000000     0.000000000000     1.000330880180    31.972071174400

  Running in d2h symmetry.

  Rotational constants: A = ************  B =      0.26346  C =      0.26346 [cm^-1]
  Rotational constants: A = ************  B =   7898.21736  C =   7898.21736 [MHz]
  Nuclear repulsion =   67.712278314902932

  Charge       = 0
  Multiplicity = 3
  Electrons    = 32
  Nalpha       = 17
  Nbeta        = 15

  ==> Algorithm <==

  SCF Algorithm Type is DF.
  DIIS enabled.
  MOM disabled.
  Fractional occupation disabled.
  Guess Type is SAD.
  Energy threshold   = 1.00e-08
  Density threshold  = 1.00e-08
  Integral threshold = 0.00e+00

  ==> Primary Basis <==

  Basis Set: AUG-CC-PVTZ
    Blend: AUG-CC-PVTZ
    Number of shells: 32
    Number of basis function: 100
    Number of Cartesian functions: 118
    Spherical Harmonics?: true
    Max angular momentum: 3

  ==> DFT Potential <==

   => Composite Functional: WB97M-V <= 

    wB97M-V Hyb-GGA Exchange-Correlation Functional

    N. Mardirossian and M. Head-Gordon, J. Chem. Phys. 144, 214110 (2016)

    Deriv               =              1
    GGA                 =           TRUE
    Meta                =           TRUE

    Exchange Hybrid     =           TRUE
    MP2 Hybrid          =          FALSE

   => Exchange-Correlation Functionals <=

    1.0000   wB97M-V exchange-correlation functional

   => Exact (HF) Exchange <=

    0.8500            HF,LR [omega = 0.3000]
    0.1500               HF 

   => VV10 Non-Local Parameters <=

    VV10 B              =     6.0000E+00
    VV10 C              =     1.0000E-02

   => Molecular Quadrature <=

    Radial Scheme          =       TREUTLER
    Pruning Scheme         =           NONE
    Nuclear Scheme         =       TREUTLER

    BS radius alpha        =              1
    Pruning alpha          =              1
    Radial Points          =             99
    Spherical Points       =            590
    Total Points           =         113368
    Total Blocks           =            984
    Max Points             =            255
    Max Functions          =            100
    Weights Tolerance      =       1.00E-15

   => Loading Basis Set <=

    Name: (AUG-CC-PVTZ AUX)
    Role: JKFIT
    Keyword: DF_BASIS_SCF
    atoms 1-2 entry S          line   730 file /apps/gb/PSI4/1.4.0/share/psi4/basis/aug-cc-pvtz-jkfit.gbs 

  ==> Pre-Iterations <==

   -------------------------------------------------------
    Irrep   Nso     Nmo     Nalpha   Nbeta   Ndocc  Nsocc
   -------------------------------------------------------
     Ag        21      21       0       0       0       0
     B1g        5       5       0       0       0       0
     B2g       12      12       0       0       0       0
     B3g       12      12       0       0       0       0
     Au         5       5       0       0       0       0
     B1u       21      21       0       0       0       0
     B2u       12      12       0       0       0       0
     B3u       12      12       0       0       0       0
   -------------------------------------------------------
    Total     100     100      17      15      15       2
   -------------------------------------------------------

  ==> Integral Setup <==

  ==> DiskDFJK: Density-Fitted J/K Matrices <==

    J tasked:                  Yes
    K tasked:                  Yes
    wK tasked:                 Yes
    Omega:               3.000E-01
    OpenMP threads:              1
    Integrals threads:           1
    Memory [MiB]:             6378
    Algorithm:                Core
    Integral Cache:           NONE
    Schwarz Cutoff:          1E-12
    Fitting Condition:       1E-10

   => Auxiliary Basis Set <=

  Basis Set: (AUG-CC-PVTZ AUX)
    Blend: AUG-CC-PVTZ-JKFIT
    Number of shells: 84
    Number of basis function: 292
    Number of Cartesian functions: 360
    Spherical Harmonics?: true
    Max angular momentum: 4

  Cached 100.0% of DFT collocation blocks in 0.756 [GiB].

  Minimum eigenvalue in the overlap matrix is 2.7231679894E-04.
  Using Symmetric Orthogonalization.

  SCF Guess: Superposition of Atomic Densities via on-the-fly atomic UHF.

  ==> Iterations <==

                           Total Energy        Delta E     RMS |[F,P]|

   @DF-UKS iter SAD:  -795.86832931939512   -7.95868e+02   0.00000e+00 
   @DF-UKS iter   1:  -796.33990076681584   -4.71571e-01   5.58868e-03 DIIS
   @DF-UKS iter   2:  -796.35315583124043   -1.32551e-02   1.87249e-03 DIIS
   @DF-UKS iter   3:  -796.35455214379522   -1.39631e-03   2.17137e-04 DIIS
   @DF-UKS iter   4:  -796.35467541275705   -1.23269e-04   3.81576e-05 DIIS
   @DF-UKS iter   5:  -796.35467860872154   -3.19596e-06   1.52250e-05 DIIS
   @DF-UKS iter   6:  -796.35467889563836   -2.86917e-07   2.88242e-06 DIIS
   @DF-UKS iter   7:  -796.35467891610551   -2.04672e-08   4.73614e-07 DIIS
   @DF-UKS iter   8:  -796.35467891675205   -6.46537e-10   5.89689e-08 DIIS
   @DF-UKS iter   9:  -796.35467891676126   -9.20863e-12   7.90521e-09 DIIS
  Energy and wave function converged.


  ==> Post-Iterations <==

   @Spin Contamination Metric:   9.506000447E-03
   @S^2 Expected:                2.000000000E+00
   @S^2 Observed:                2.009506000E+00
   @S   Expected:                1.000000000E+00
   @S   Observed:                1.000000000E+00

    Orbital Energies [Eh]
    ---------------------

    Alpha Occupied:                                                       

       1B1u  -89.270341     1Ag   -89.270338     2Ag    -8.178787  
       2B1u   -8.178709     1B2u   -6.088045     1B3u   -6.088045  
       1B3g   -6.088030     1B2g   -6.088030     3Ag    -6.086550  
       3B1u   -6.086197     4Ag    -0.936799     4B1u   -0.758087  
       5Ag    -0.488099     2B2u   -0.467211     2B3u   -0.467211  
       2B3g   -0.344630     2B2g   -0.344630  

    Alpha Virtual:                                                        

       5B1u    0.018634     6Ag     0.064964     3B3u    0.067886  
       3B2u    0.067886     6B1u    0.077382     7Ag     0.084561  
       3B2g    0.094756     3B3g    0.094756     8Ag     0.185720  
       1B1g    0.185720     7B1u    0.193023     4B3u    0.230424  
       4B2u    0.230424     9Ag     0.277481     1Au     0.288239  
       8B1u    0.288239     9B1u    0.346240     4B2g    0.355689  
       4B3g    0.355689     5B3u    0.453223     5B2u    0.453223  
       6B2u    0.542222     6B3u    0.542222    10B1u    0.552579  
      10Ag     0.556321    11Ag     0.559138     5B2g    0.562857  
       5B3g    0.562857    12Ag     0.568425     2B1g    0.568426  
       2Au     0.645775    11B1u    0.645778    13Ag     0.646481  
       7B2u    0.703960     7B3u    0.703960     6B2g    0.724946  
       6B3g    0.724946     3B1g    0.764261    14Ag     0.764266  
      12B1u    0.830597     7B3g    0.843247     7B2g    0.843247  
       8B2u    0.997572     8B3u    0.997572    13B1u    1.032426  
       3Au     1.032436    14B1u    1.041261     8B2g    1.194341  
       8B3g    1.194341    15Ag     1.255370    15B1u    1.413844  
       4B1g    1.735039    16Ag     1.735046     4Au     1.808073  
      16B1u    1.808081    17B1u    1.809292     9B2u    1.811236  
       9B3u    1.811236     9B3g    1.928014     9B2g    1.928014  
      17Ag     1.936150    10B2u    1.993868    10B3u    1.993868  
       5B1g    2.031644    18Ag     2.031646    19Ag     2.044577  
      11B3u    2.050478    11B2u    2.050478    12B3u    2.071557  
      12B2u    2.071557    10B2g    2.131285    10B3g    2.131285  
      18B1u    2.265503     5Au     2.265509    11B2g    2.279770  
      11B3g    2.279770    19B1u    2.393410    20Ag     2.488180  
      12B2g    2.570666    12B3g    2.570666    20B1u    3.635788  
      21Ag     4.454733    21B1u    5.283594  

    Beta Occupied:                                                        

       1B1u  -89.264034     1Ag   -89.264033     2Ag    -8.172515  
       2B1u   -8.172369     3Ag    -6.082633     3B1u   -6.082281  
       1B2u   -6.074475     1B3u   -6.074475     1B3g   -6.074449  
       1B2g   -6.074449     4Ag    -0.908818     4B1u   -0.702933  
       5Ag    -0.463472     2B2u   -0.407624     2B3u   -0.407624  

    Beta Virtual:                                                         

       2B3g   -0.074608     2B2g   -0.074608     5B1u    0.022961  
       6Ag     0.063979     3B2u    0.068017     3B3u    0.068017  
       7Ag     0.087765     6B1u    0.090435     3B2g    0.095902  
       3B3g    0.095902     1B1g    0.193460     8Ag     0.193460  
       7B1u    0.193694     4B3u    0.248053     4B2u    0.248053  
       9Ag     0.281970     1Au     0.296304     8B1u    0.296304  
       9B1u    0.348884     4B2g    0.358307     4B3g    0.358307  
       5B3u    0.464141     5B2u    0.464141    10Ag     0.553124  
      10B1u    0.560602     6B3u    0.561391     6B2u    0.561391  
       5B2g    0.568996     5B3g    0.568996    11Ag     0.571900  
      12Ag     0.588150     2B1g    0.588151    13Ag     0.662996  
       2Au     0.680630    11B1u    0.680634     7B2u    0.708979  
       7B3u    0.708979     6B2g    0.746773     6B3g    0.746773  
       3B1g    0.775962    14Ag     0.775967    12B1u    0.846837  
       7B3g    0.849725     7B2g    0.849725     8B2u    1.003994  
       8B3u    1.003994    13B1u    1.037652     3Au     1.037663  
      14B1u    1.046096     8B2g    1.206475     8B3g    1.206475  
      15Ag     1.281933    15B1u    1.447124     4B1g    1.790424  
      16Ag     1.790433    16B1u    1.823670     9B2u    1.831787  
       9B3u    1.831787     4Au     1.863157    17B1u    1.863167  
      17Ag     1.946732     9B3g    1.975366     9B2g    1.975366  
      10B2u    2.014922    10B3u    2.014922     5B1g    2.061559  
      18Ag     2.061561    19Ag     2.061566    11B3u    2.108941  
      11B2u    2.108941    12B3u    2.124103    12B2u    2.124103  
      10B2g    2.181989    10B3g    2.181989    18B1u    2.298358  
       5Au     2.298365    11B2g    2.312056    11B3g    2.312056  
      19B1u    2.414491    20Ag     2.505029    12B2g    2.599886  
      12B3g    2.599886    20B1u    3.644387    21Ag     4.481549  
      21B1u    5.306494  

    Final Occupation by Irrep:
             Ag   B1g   B2g   B3g    Au   B1u   B2u   B3u 
    DOCC [     5,    0,    1,    1,    0,    4,    2,    2 ]
    SOCC [     0,    0,    1,    1,    0,    0,    0,    0 ]

  @DF-UKS Final Energy:  -796.35467891676126

   => Energetics <=

    Nuclear Repulsion Energy =             67.7122783149029317
    One-Electron Energy =               -1233.9327566450456288
    Two-Electron Energy =                 409.2643472642249094
    DFT Exchange-Correlation Energy =     -39.5322716141776525
    Empirical Dispersion Energy =           0.0000000000000000
    VV10 Nonlocal Energy =                  0.1337237633343664
    Total Energy =                       -796.3546789167610314

  UHF NO Occupations:
  HONO-2 :    2B3u 1.9978734
  HONO-1 :    2B2g 1.0000000
  HONO-0 :    2B3g 1.0000000
  LUNO+0 :    3B3u 0.0021266
  LUNO+1 :    3B2u 0.0021266
  LUNO+2 :    5B1u 0.0002510
  LUNO+3 :    6 Ag 0.0002016


Computation Completed


Properties will be evaluated at   0.000000,   0.000000,   0.000000 [a0]

Properties computed using the SCF density matrix

  Nuclear Dipole Moment: [e a0]
     X:     0.0000      Y:     0.0000      Z:     0.0000

  Electronic Dipole Moment: [e a0]
     X:     0.0000      Y:     0.0000      Z:     0.0000

  Dipole Moment: [e a0]
     X:     0.0000      Y:     0.0000      Z:     0.0000     Total:     0.0000

  Dipole Moment: [D]
     X:     0.0000      Y:     0.0000      Z:     0.0000     Total:     0.0000


*** tstop() called on d5-15.compute.lan at Wed Feb  3 17:12:07 2021
Module time:
	user time   =      50.19 seconds =       0.84 minutes
	system time =       0.06 seconds =       0.00 minutes
	total time  =         50 seconds =       0.83 minutes
Total time:
	user time   =     100.06 seconds =       1.67 minutes
	system time =       0.31 seconds =       0.01 minutes
	total time  =        100 seconds =       1.67 minutes

  //>>>>>>>>>>>>>>>>>>>>>>>>>>>>>>>>>>>//
  //    Loading displacement 3 of 3    //
  //<<<<<<<<<<<<<<<<<<<<<<<<<<<<<<<<<<<//

*** tstart() called on d5-15.compute.lan
*** at Wed Feb  3 17:12:07 2021

   => Loading Basis Set <=

    Name: AUG-CC-PVTZ
    Role: ORBITAL
    Keyword: BASIS
    atoms 1-2 entry S          line   906 file /apps/gb/PSI4/1.4.0/share/psi4/basis/aug-cc-pvtz.gbs 


         ---------------------------------------------------------
                                   SCF
               by Justin Turney, Rob Parrish, Andy Simmonett
                          and Daniel G. A. Smith
                              UKS Reference
                        1 Threads,   9536 MiB Core
         ---------------------------------------------------------

  ==> Geometry <==

    Molecular point group: d2h
    Full point group: D_inf_h

    Geometry (in Angstrom), charge = 0, multiplicity = 3:

       Center              X                  Y                   Z               Mass       
    ------------   -----------------  -----------------  -----------------  -----------------
         S            0.000000000000     0.000000000000    -0.999669119820    31.972071174400
         S            0.000000000000     0.000000000000     0.999669119820    31.972071174400

  Running in d2h symmetry.

  Rotational constants: A = ************  B =      0.26381  C =      0.26381 [cm^-1]
  Rotational constants: A = ************  B =   7908.67773  C =   7908.67773 [MHz]
  Nuclear repulsion =   67.757102448034203

  Charge       = 0
  Multiplicity = 3
  Electrons    = 32
  Nalpha       = 17
  Nbeta        = 15

  ==> Algorithm <==

  SCF Algorithm Type is DF.
  DIIS enabled.
  MOM disabled.
  Fractional occupation disabled.
  Guess Type is SAD.
  Energy threshold   = 1.00e-08
  Density threshold  = 1.00e-08
  Integral threshold = 0.00e+00

  ==> Primary Basis <==

  Basis Set: AUG-CC-PVTZ
    Blend: AUG-CC-PVTZ
    Number of shells: 32
    Number of basis function: 100
    Number of Cartesian functions: 118
    Spherical Harmonics?: true
    Max angular momentum: 3

  ==> DFT Potential <==

   => Composite Functional: WB97M-V <= 

    wB97M-V Hyb-GGA Exchange-Correlation Functional

    N. Mardirossian and M. Head-Gordon, J. Chem. Phys. 144, 214110 (2016)

    Deriv               =              1
    GGA                 =           TRUE
    Meta                =           TRUE

    Exchange Hybrid     =           TRUE
    MP2 Hybrid          =          FALSE

   => Exchange-Correlation Functionals <=

    1.0000   wB97M-V exchange-correlation functional

   => Exact (HF) Exchange <=

    0.8500            HF,LR [omega = 0.3000]
    0.1500               HF 

   => VV10 Non-Local Parameters <=

    VV10 B              =     6.0000E+00
    VV10 C              =     1.0000E-02

   => Molecular Quadrature <=

    Radial Scheme          =       TREUTLER
    Pruning Scheme         =           NONE
    Nuclear Scheme         =       TREUTLER

    BS radius alpha        =              1
    Pruning alpha          =              1
    Radial Points          =             99
    Spherical Points       =            590
    Total Points           =         113368
    Total Blocks           =            984
    Max Points             =            255
    Max Functions          =            100
    Weights Tolerance      =       1.00E-15

   => Loading Basis Set <=

    Name: (AUG-CC-PVTZ AUX)
    Role: JKFIT
    Keyword: DF_BASIS_SCF
    atoms 1-2 entry S          line   730 file /apps/gb/PSI4/1.4.0/share/psi4/basis/aug-cc-pvtz-jkfit.gbs 

  ==> Pre-Iterations <==

   -------------------------------------------------------
    Irrep   Nso     Nmo     Nalpha   Nbeta   Ndocc  Nsocc
   -------------------------------------------------------
     Ag        21      21       0       0       0       0
     B1g        5       5       0       0       0       0
     B2g       12      12       0       0       0       0
     B3g       12      12       0       0       0       0
     Au         5       5       0       0       0       0
     B1u       21      21       0       0       0       0
     B2u       12      12       0       0       0       0
     B3u       12      12       0       0       0       0
   -------------------------------------------------------
    Total     100     100      17      15      15       2
   -------------------------------------------------------

  ==> Integral Setup <==

  ==> DiskDFJK: Density-Fitted J/K Matrices <==

    J tasked:                  Yes
    K tasked:                  Yes
    wK tasked:                 Yes
    Omega:               3.000E-01
    OpenMP threads:              1
    Integrals threads:           1
    Memory [MiB]:             6378
    Algorithm:                Core
    Integral Cache:           NONE
    Schwarz Cutoff:          1E-12
    Fitting Condition:       1E-10

   => Auxiliary Basis Set <=

  Basis Set: (AUG-CC-PVTZ AUX)
    Blend: AUG-CC-PVTZ-JKFIT
    Number of shells: 84
    Number of basis function: 292
    Number of Cartesian functions: 360
    Spherical Harmonics?: true
    Max angular momentum: 4

  Cached 100.0% of DFT collocation blocks in 0.756 [GiB].

  Minimum eigenvalue in the overlap matrix is 2.7148790077E-04.
  Using Symmetric Orthogonalization.

  SCF Guess: Superposition of Atomic Densities via on-the-fly atomic UHF.

  ==> Iterations <==

                           Total Energy        Delta E     RMS |[F,P]|

   @DF-UKS iter SAD:  -795.86999927593683   -7.95870e+02   0.00000e+00 
   @DF-UKS iter   1:  -796.34002830923623   -4.70029e-01   5.59052e-03 DIIS
   @DF-UKS iter   2:  -796.35329372388355   -1.32654e-02   1.87292e-03 DIIS
   @DF-UKS iter   3:  -796.35468980304324   -1.39608e-03   2.17164e-04 DIIS
   @DF-UKS iter   4:  -796.35481307312466   -1.23270e-04   3.78175e-05 DIIS
   @DF-UKS iter   5:  -796.35481624504860   -3.17192e-06   1.50431e-05 DIIS
   @DF-UKS iter   6:  -796.35481652491512   -2.79867e-07   2.88778e-06 DIIS
   @DF-UKS iter   7:  -796.35481654531736   -2.04022e-08   4.73368e-07 DIIS
   @DF-UKS iter   8:  -796.35481654596219   -6.44832e-10   5.90224e-08 DIIS
   @DF-UKS iter   9:  -796.35481654597254   -1.03455e-11   7.92020e-09 DIIS
  Energy and wave function converged.


  ==> Post-Iterations <==

   @Spin Contamination Metric:   9.495170763E-03
   @S^2 Expected:                2.000000000E+00
   @S^2 Observed:                2.009495171E+00
   @S   Expected:                1.000000000E+00
   @S   Observed:                1.000000000E+00

    Orbital Energies [Eh]
    ---------------------

    Alpha Occupied:                                                       

       1B1u  -89.270245     1Ag   -89.270242     2Ag    -8.178719  
       2B1u   -8.178639     1B2u   -6.087976     1B3u   -6.087976  
       1B3g   -6.087960     1B2g   -6.087960     3Ag    -6.086478  
       3B1u   -6.086122     4Ag    -0.937081     4B1u   -0.757947  
       5Ag    -0.488197     2B2u   -0.467348     2B3u   -0.467348  
       2B3g   -0.344496     2B2g   -0.344496  

    Alpha Virtual:                                                        

       5B1u    0.018796     6Ag     0.064970     3B2u    0.067877  
       3B3u    0.067877     6B1u    0.077607     7Ag     0.084542  
       3B3g    0.094764     3B2g    0.094764     8Ag     0.185697  
       1B1g    0.185697     7B1u    0.193055     4B3u    0.230481  
       4B2u    0.230481     9Ag     0.277405     1Au     0.288298  
       8B1u    0.288298     9B1u    0.346404     4B3g    0.355715  
       4B2g    0.355715     5B2u    0.453174     5B3u    0.453174  
       6B2u    0.542212     6B3u    0.542212    10B1u    0.552520  
      10Ag     0.556218    11Ag     0.559052     5B3g    0.562908  
       5B2g    0.562908    12Ag     0.568337     2B1g    0.568338  
       2Au     0.645838    11B1u    0.645841    13Ag     0.646756  
       7B3u    0.703913     7B2u    0.703913     6B3g    0.725165  
       6B2g    0.725165     3B1g    0.764439    14Ag     0.764444  
      12B1u    0.831061     7B2g    0.843352     7B3g    0.843352  
       8B3u    0.997832     8B2u    0.997832    13B1u    1.032634  
       3Au     1.032645    14B1u    1.041809     8B3g    1.194523  
       8B2g    1.194523    15Ag     1.255831    15B1u    1.413880  
       4B1g    1.735090    16Ag     1.735097     4Au     1.808175  
      16B1u    1.808183    17B1u    1.809030     9B2u    1.811070  
       9B3u    1.811070     9B3g    1.927830     9B2g    1.927830  
      17Ag     1.935826    10B2u    1.994119    10B3u    1.994119  
       5B1g    2.031264    18Ag     2.031266    19Ag     2.044252  
      11B3u    2.050549    11B2u    2.050549    12B3u    2.071503  
      12B2u    2.071503    10B2g    2.131377    10B3g    2.131377  
      18B1u    2.265966     5Au     2.265973    11B3g    2.280549  
      11B2g    2.280549    19B1u    2.394104    20Ag     2.490401  
      12B3g    2.571598    12B2g    2.571598    20B1u    3.636503  
      21Ag     4.456825    21B1u    5.284243  

    Beta Occupied:                                                        

       1B1u  -89.263938     1Ag   -89.263937     2Ag    -8.172447  
       2B1u   -8.172300     3Ag    -6.082562     3B1u   -6.082206  
       1B2u   -6.074407     1B3u   -6.074407     1B3g   -6.074380  
       1B2g   -6.074380     4Ag    -0.909128     4B1u   -0.702786  
       5Ag    -0.463557     2B2u   -0.407802     2B3u   -0.407802  

    Beta Virtual:                                                         

       2B2g   -0.074463     2B3g   -0.074463     5B1u    0.023065  
       6Ag     0.063980     3B2u    0.067997     3B3u    0.067997  
       7Ag     0.087739     6B1u    0.090705     3B3g    0.095907  
       3B2g    0.095907     1B1g    0.193436     8Ag     0.193436  
       7B1u    0.193728     4B2u    0.248117     4B3u    0.248117  
       9Ag     0.281887     1Au     0.296349     8B1u    0.296350  
       9B1u    0.349046     4B3g    0.358324     4B2g    0.358324  
       5B2u    0.464082     5B3u    0.464082    10Ag     0.553079  
      10B1u    0.560544     6B2u    0.561394     6B3u    0.561394  
       5B3g    0.569037     5B2g    0.569037    11Ag     0.571750  
      12Ag     0.588047     2B1g    0.588048    13Ag     0.663265  
       2Au     0.680699    11B1u    0.680702     7B3u    0.708933  
       7B2u    0.708933     6B3g    0.746989     6B2g    0.746989  
       3B1g    0.776150    14Ag     0.776156    12B1u    0.847291  
       7B2g    0.849830     7B3g    0.849830     8B2u    1.004256  
       8B3u    1.004256    13B1u    1.037868     3Au     1.037878  
      14B1u    1.046661     8B3g    1.206676     8B2g    1.206676  
      15Ag     1.282450    15B1u    1.447112     4B1g    1.790468  
      16Ag     1.790478    16B1u    1.823452     9B2u    1.831564  
       9B3u    1.831564     4Au     1.863254    17B1u    1.863264  
      17Ag     1.946404     9B3g    1.975203     9B2g    1.975203  
      10B2u    2.015233    10B3u    2.015233     5B1g    2.061163  
      18Ag     2.061165    19Ag     2.061239    11B3u    2.108995  
      11B2u    2.108995    12B3u    2.124039    12B2u    2.124039  
      10B2g    2.182075    10B3g    2.182075    18B1u    2.298831  
       5Au     2.298838    11B3g    2.312819    11B2g    2.312819  
      19B1u    2.415193    20Ag     2.507252    12B3g    2.600838  
      12B2g    2.600838    20B1u    3.645121    21Ag     4.483636  
      21B1u    5.307138  

    Final Occupation by Irrep:
             Ag   B1g   B2g   B3g    Au   B1u   B2u   B3u 
    DOCC [     5,    0,    1,    1,    0,    4,    2,    2 ]
    SOCC [     0,    0,    1,    1,    0,    0,    0,    0 ]

  @DF-UKS Final Energy:  -796.35481654597254

   => Energetics <=

    Nuclear Repulsion Energy =             67.7571024480342032
    One-Electron Energy =               -1234.0230859168502775
    Two-Electron Energy =                 409.3101462123232750
    DFT Exchange-Correlation Energy =     -39.5327012592777791
    Empirical Dispersion Energy =           0.0000000000000000
    VV10 Nonlocal Energy =                  0.1337219697980717
    Total Energy =                       -796.3548165459725396

  UHF NO Occupations:
  HONO-2 :    2B3u 1.9978762
  HONO-1 :    2B2g 1.0000000
  HONO-0 :    2B3g 1.0000000
  LUNO+0 :    3B3u 0.0021238
  LUNO+1 :    3B2u 0.0021238
  LUNO+2 :    5B1u 0.0002511
  LUNO+3 :    6 Ag 0.0002016


Computation Completed


Properties will be evaluated at   0.000000,   0.000000,   0.000000 [a0]

Properties computed using the SCF density matrix

  Nuclear Dipole Moment: [e a0]
     X:     0.0000      Y:     0.0000      Z:     0.0000

  Electronic Dipole Moment: [e a0]
     X:     0.0000      Y:     0.0000      Z:     0.0000

  Dipole Moment: [e a0]
     X:     0.0000      Y:     0.0000      Z:     0.0000     Total:     0.0000

  Dipole Moment: [D]
     X:     0.0000      Y:     0.0000      Z:     0.0000     Total:     0.0000


*** tstop() called on d5-15.compute.lan at Wed Feb  3 17:12:59 2021
Module time:
	user time   =      51.81 seconds =       0.86 minutes
	system time =       0.06 seconds =       0.00 minutes
	total time  =         52 seconds =       0.87 minutes
Total time:
	user time   =     151.88 seconds =       2.53 minutes
	system time =       0.37 seconds =       0.01 minutes
	total time  =        152 seconds =       2.53 minutes

         ----------------------------------------------------------
                                   FINDIF
                     R. A. King and Jonathon Misiewicz
         ---------------------------------------------------------

  Computing gradient from energies.
    Using 3-point formula.
    Energy without displacement: -796.3547478932
    Check energies below for precision!
    Forces are for mass-weighted, symmetry-adapted cartesians (in au).

     Coord      Energy(-1)        Energy(+1)            Force
        0   -796.3546789168   -796.3548165460     -0.0137629211


-------------------------------------------------------------
  ## New Matrix (Symmetry 0) ##
  Irrep: 1 Size: 2 x 3

                 1                   2                   3

    1     0.00000000000000     0.00000000000000    -0.05502765537921
    2     0.00000000000000     0.00000000000000     0.05502765537921




			-----------------------------------------
			 OPTKING 2.0: for geometry optimizations 
			  - R.A. King,  Bethel University        
			-----------------------------------------

	Internal coordinates to be generated automatically.
	Detected frag 1 with atoms:  1 2
	---Fragment 1 Bond Connectivity---
	 1 : 2
	 2 : 1

	---Fragment 1 Geometry and Gradient---
	 S           0.0000000000        0.0000000000       -1.8897261255
	 S           0.0000000000        0.0000000000        1.8897261255
	             0.0000000000        0.0000000000       -0.0550276554
	             0.0000000000        0.0000000000        0.0550276554

	Previous optimization step data not found.  Starting new optimization.

	---Fragment 1 Intrafragment Coordinates---
	 - Coordinate -           - BOHR/RAD -       - ANG/DEG -
	 R(1,2)           =         3.779452	       2.000000

	Current energy   :      -796.3547478932

	Generating empirical Hessian (Schlegel '84) for each fragment.
	Taking RFO optimization step.
	Going to follow RFO solution 1.
	Using RFO vector 1.
	Norm of target step-size    0.15525
	Projected energy change by RFO approximation:         0.0034256322

	Back-transformation to cartesian coordinates...
	Successfully converged to displaced geometry.

	--- Internal Coordinate Step in ANG or DEG, aJ/ANG or AJ/DEG ---
	 ---------------------------------------------------------------------------
	   Coordinate                Previous        Force       Change         New 
	   ----------                --------       ------       ------       ------
	    1 R(1,2)          =      2.000000    -0.453358    -0.082155     1.917845
	 ---------------------------------------------------------------------------
	Successfully symmetrized geometry.

  ==> Convergence Check <==

  Measures of convergence in internal coordinates in au.
  Criteria marked as inactive (o), active & met (*), and active & unmet ( ).
  --------------------------------------------------------------------------------------------- ~
   Step     Total Energy     Delta E     MAX Force     RMS Force      MAX Disp      RMS Disp    ~
  --------------------------------------------------------------------------------------------- ~
    Convergence Criteria             o    2.00e-06 *    1.00e-06 *    6.00e-06 *    4.00e-06 *  ~
  --------------------------------------------------------------------------------------------- ~
      1    -796.35474789   -7.96e+02 o    5.50e-02      5.50e-02      1.55e-01      1.55e-01    ~
  ---------------------------------------------------------------------------------------------

	Writing optimization data to binary file.
	Structure for next step:
	Cartesian Geometry (in Angstrom)
	    S     0.0000000000   0.0000000000  -0.9589227193
	    S     0.0000000000   0.0000000000   0.9589227193
			--------------------------
			 OPTKING Finished Execution 
			--------------------------

    Structure for next step:
    Molecular point group: d2h
    Full point group: D_inf_h

    Geometry (in Angstrom), charge = 0, multiplicity = 3:

    S       
    S             1          r1

    r1        =    1.9178454462

gradient() will perform gradient computation by finite difference of analytic energies.

         ----------------------------------------------------------
                                   FINDIF
                     R. A. King and Jonathon Misiewicz
         ---------------------------------------------------------

  Using finite-differences of energies to determine gradients.
    Generating geometries for use with 3-point formula.
    Displacement size will be 5.00e-03.
    Number of atoms is 2.
    Number of symmetric SALCs is 1.
    Translations projected? 1. Rotations projected? 1.
    Number of geometries (including reference) is 3.

  //>>>>>>>>>>>>>>>>>>>>>>>>>>>>>>>>>>>//
  //    Loading displacement 1 of 3    //
  //<<<<<<<<<<<<<<<<<<<<<<<<<<<<<<<<<<<//

*** tstart() called on d5-15.compute.lan
*** at Wed Feb  3 17:12:59 2021

   => Loading Basis Set <=

    Name: AUG-CC-PVTZ
    Role: ORBITAL
    Keyword: BASIS
    atoms 1-2 entry S          line   906 file /apps/gb/PSI4/1.4.0/share/psi4/basis/aug-cc-pvtz.gbs 


         ---------------------------------------------------------
                                   SCF
               by Justin Turney, Rob Parrish, Andy Simmonett
                          and Daniel G. A. Smith
                              UKS Reference
                        1 Threads,   9536 MiB Core
         ---------------------------------------------------------

  ==> Geometry <==

    Molecular point group: d2h
    Full point group: D_inf_h

    Geometry (in Angstrom), charge = 0, multiplicity = 3:

       Center              X                  Y                   Z               Mass       
    ------------   -----------------  -----------------  -----------------  -----------------
         S            0.000000000000     0.000000000000    -0.958922723104    31.972071174400
         S            0.000000000000     0.000000000000     0.958922723104    31.972071174400

  Running in d2h symmetry.

  Rotational constants: A = ************  B =      0.28670  C =      0.28670 [cm^-1]
  Rotational constants: A = ************  B =   8595.06593  C =   8595.06593 [MHz]
  Nuclear repulsion =   70.636226813485351

  Charge       = 0
  Multiplicity = 3
  Electrons    = 32
  Nalpha       = 17
  Nbeta        = 15

  ==> Algorithm <==

  SCF Algorithm Type is DF.
  DIIS enabled.
  MOM disabled.
  Fractional occupation disabled.
  Guess Type is READ.
  Energy threshold   = 1.00e-08
  Density threshold  = 1.00e-08
  Integral threshold = 0.00e+00

  ==> Primary Basis <==

  Basis Set: AUG-CC-PVTZ
    Blend: AUG-CC-PVTZ
    Number of shells: 32
    Number of basis function: 100
    Number of Cartesian functions: 118
    Spherical Harmonics?: true
    Max angular momentum: 3

  ==> DFT Potential <==

   => Composite Functional: WB97M-V <= 

    wB97M-V Hyb-GGA Exchange-Correlation Functional

    N. Mardirossian and M. Head-Gordon, J. Chem. Phys. 144, 214110 (2016)

    Deriv               =              1
    GGA                 =           TRUE
    Meta                =           TRUE

    Exchange Hybrid     =           TRUE
    MP2 Hybrid          =          FALSE

   => Exchange-Correlation Functionals <=

    1.0000   wB97M-V exchange-correlation functional

   => Exact (HF) Exchange <=

    0.8500            HF,LR [omega = 0.3000]
    0.1500               HF 

   => VV10 Non-Local Parameters <=

    VV10 B              =     6.0000E+00
    VV10 C              =     1.0000E-02

   => Molecular Quadrature <=

    Radial Scheme          =       TREUTLER
    Pruning Scheme         =           NONE
    Nuclear Scheme         =       TREUTLER

    BS radius alpha        =              1
    Pruning alpha          =              1
    Radial Points          =             99
    Spherical Points       =            590
    Total Points           =         113358
    Total Blocks           =            982
    Max Points             =            254
    Max Functions          =            100
    Weights Tolerance      =       1.00E-15

   => Loading Basis Set <=

    Name: (AUG-CC-PVTZ AUX)
    Role: JKFIT
    Keyword: DF_BASIS_SCF
    atoms 1-2 entry S          line   730 file /apps/gb/PSI4/1.4.0/share/psi4/basis/aug-cc-pvtz-jkfit.gbs 

   => Loading Basis Set <=

    Name: AUG-CC-PVTZ
    Role: ORBITAL
    Keyword: BASIS
    atoms 1-2 entry S          line   906 file /apps/gb/PSI4/1.4.0/share/psi4/basis/aug-cc-pvtz.gbs 

  Reading orbitals from file 180, no projection.

  ==> Pre-Iterations <==

   -------------------------------------------------------
    Irrep   Nso     Nmo     Nalpha   Nbeta   Ndocc  Nsocc
   -------------------------------------------------------
     Ag        21      21       0       0       0       0
     B1g        5       5       0       0       0       0
     B2g       12      12       0       0       0       0
     B3g       12      12       0       0       0       0
     Au         5       5       0       0       0       0
     B1u       21      21       0       0       0       0
     B2u       12      12       0       0       0       0
     B3u       12      12       0       0       0       0
   -------------------------------------------------------
    Total     100     100      17      15      15       2
   -------------------------------------------------------

  ==> Integral Setup <==

  ==> DiskDFJK: Density-Fitted J/K Matrices <==

    J tasked:                  Yes
    K tasked:                  Yes
    wK tasked:                 Yes
    Omega:               3.000E-01
    OpenMP threads:              1
    Integrals threads:           1
    Memory [MiB]:             6377
    Algorithm:                Core
    Integral Cache:           NONE
    Schwarz Cutoff:          1E-12
    Fitting Condition:       1E-10

   => Auxiliary Basis Set <=

  Basis Set: (AUG-CC-PVTZ AUX)
    Blend: AUG-CC-PVTZ-JKFIT
    Number of shells: 84
    Number of basis function: 292
    Number of Cartesian functions: 360
    Spherical Harmonics?: true
    Max angular momentum: 4

  Cached 100.0% of DFT collocation blocks in 0.757 [GiB].

  Minimum eigenvalue in the overlap matrix is 2.2464427262E-04.
  Using Symmetric Orthogonalization.

  SCF Guess: Orbitals guess was supplied from a previous computation.

  ==> Iterations <==

                           Total Energy        Delta E     RMS |[F,P]|

   @DF-UKS iter   0:  -796.41135197335541   -7.96411e+02   5.21392e-03 
   @DF-UKS iter   1:  -796.35979047086721    5.15615e-02   7.80345e-04 DIIS
   @DF-UKS iter   2:  -796.36023215496493   -4.41684e-04   4.88132e-04 DIIS
   @DF-UKS iter   3:  -796.36041979791139   -1.87643e-04   3.31766e-05 DIIS
   @DF-UKS iter   4:  -796.36042142929273   -1.63138e-06   7.99608e-06 DIIS
   @DF-UKS iter   5:  -796.36042154406562   -1.14773e-07   1.48308e-06 DIIS
   @DF-UKS iter   6:  -796.36042154806751   -4.00189e-09   2.70938e-07 DIIS
   @DF-UKS iter   7:  -796.36042154826987   -2.02363e-10   6.77425e-08 DIIS
   @DF-UKS iter   8:  -796.36042154828192   -1.20508e-11   1.01919e-08 DIIS
   @DF-UKS iter   9:  -796.36042154828249   -5.68434e-13   1.36613e-09 DIIS
  Energy and wave function converged.


  ==> Post-Iterations <==

   @Spin Contamination Metric:   8.829340711E-03
   @S^2 Expected:                2.000000000E+00
   @S^2 Observed:                2.008829341E+00
   @S   Expected:                1.000000000E+00
   @S   Observed:                1.000000000E+00

    Orbital Energies [Eh]
    ---------------------

    Alpha Occupied:                                                       

       1B1u  -89.263831     1Ag   -89.263828     2Ag    -8.174306  
       2B1u   -8.174170     1B2u   -6.083475     1B3u   -6.083475  
       1B3g   -6.083439     1B2g   -6.083439     3Ag    -6.081915  
       3B1u   -6.081292     4Ag    -0.955729     4B1u   -0.749013  
       5Ag    -0.493903     2B2u   -0.476454     2B3u   -0.476454  
       2B3g   -0.335881     2B2g   -0.335881  

    Alpha Virtual:                                                        

       5B1u    0.026833     6Ag     0.065319     3B2u    0.067219  
       3B3u    0.067219     7Ag     0.083361     6B1u    0.093623  
       3B2g    0.095229     3B3g    0.095229     8Ag     0.184207  
       1B1g    0.184208     7B1u    0.195257     4B3u    0.234001  
       4B2u    0.234001     9Ag     0.272421     1Au     0.291944  
       8B1u    0.291945     9B1u    0.357070     4B2g    0.357247  
       4B3g    0.357247     5B2u    0.449606     5B3u    0.449606  
       6B2u    0.542136     6B3u    0.542136    10Ag     0.547166  
      10B1u    0.548832    11Ag     0.556270    12Ag     0.562583  
       2B1g    0.562584     5B2g    0.565919     5B3g    0.565919  
       2Au     0.649878    11B1u    0.649881    13Ag     0.664469  
       7B3u    0.701032     7B2u    0.701032     6B2g    0.739631  
       6B3g    0.739631     3B1g    0.775652    14Ag     0.775659  
       7B2g    0.849895     7B3g    0.849895    12B1u    0.860359  
       8B2u    1.013588     8B3u    1.013588    13B1u    1.045529  
       3Au     1.045536    14B1u    1.078373     8B2g    1.206747  
       8B3g    1.206747    15Ag     1.284021    15B1u    1.411602  
       4B1g    1.738361    16Ag     1.738368     9B3u    1.794208  
       9B2u    1.794208    16B1u    1.798539     4Au     1.814868  
      17B1u    1.814874     9B2g    1.915205     9B3g    1.915205  
      17Ag     1.917530     5B1g    2.007000    18Ag     2.007003  
      10B3u    2.015325    10B2u    2.015325    19Ag     2.023176  
      11B2u    2.061036    11B3u    2.061036    12B2u    2.067360  
      12B3u    2.067360    10B3g    2.137679    10B2g    2.137679  
      18B1u    2.296398     5Au     2.296400    11B2g    2.331602  
      11B3g    2.331602    19B1u    2.440765    12B3g    2.629410  
      12B2g    2.629410    20Ag     2.633017    20B1u    3.644211  
      21Ag     4.597519    21B1u    5.356347  

    Beta Occupied:                                                        

       1B1u  -89.257580     1Ag   -89.257579     2Ag    -8.168084  
       2B1u   -8.167878     3Ag    -6.078031     3B1u   -6.077409  
       1B2u   -6.070019     1B3u   -6.070019     1B3g   -6.069970  
       1B2g   -6.069970     4Ag    -0.929549     4B1u   -0.693461  
       5Ag    -0.468441     2B2u   -0.419496     2B3u   -0.419496  

    Beta Virtual:                                                         

       2B3g   -0.065219     2B2g   -0.065219     5B1u    0.028128  
       6Ag     0.064044     3B2u    0.066659     3B3u    0.066659  
       7Ag     0.086139     3B2g    0.096224     3B3g    0.096224  
       6B1u    0.108549     8Ag     0.191855     1B1g    0.191855  
       7B1u    0.196231     4B3u    0.251989     4B2u    0.251989  
       9Ag     0.276515     1Au     0.299126     8B1u    0.299127  
       4B2g    0.359263     4B3g    0.359263     9B1u    0.359620  
       5B2u    0.459861     5B3u    0.459861    10Ag     0.549001  
      10B1u    0.556997     6B3u    0.562097     6B2u    0.562097  
      11Ag     0.563660     5B2g    0.571374     5B3g    0.571374  
      12Ag     0.581467     2B1g    0.581468    13Ag     0.680582  
       2Au     0.685104    11B1u    0.685107     7B3u    0.706137  
       7B2u    0.706137     6B2g    0.761245     6B3g    0.761245  
       3B1g    0.787934    14Ag     0.787941     7B2g    0.856377  
       7B3g    0.856377    12B1u    0.875989     8B2u    1.020191  
       8B3u    1.020191    13B1u    1.051271     3Au     1.051279  
      14B1u    1.084480     8B2g    1.220092     8B3g    1.220092  
      15Ag     1.313983    15B1u    1.441201     4B1g    1.793205  
      16Ag     1.793215     9B3u    1.811473     9B2u    1.811473  
      16B1u    1.816148     4Au     1.869621    17B1u    1.869630  
      17Ag     1.928016     9B2g    1.963609     9B3g    1.963609  
       5B1g    2.035987    18Ag     2.035991    19Ag     2.040039  
      10B3u    2.043103    10B2u    2.043103    11B2u    2.115314  
      11B3u    2.115314    12B2u    2.119167    12B3u    2.119167  
      10B3g    2.187992    10B2g    2.187992    18B1u    2.329995  
       5Au     2.329997    11B2g    2.363120    11B3g    2.363120  
      19B1u    2.462361    20Ag     2.650105    12B3g    2.659966  
      12B2g    2.659966    20B1u    3.654056    21Ag     4.623961  
      21B1u    5.378918  

    Final Occupation by Irrep:
             Ag   B1g   B2g   B3g    Au   B1u   B2u   B3u 
    DOCC [     5,    0,    1,    1,    0,    4,    2,    2 ]
    SOCC [     0,    0,    1,    1,    0,    0,    0,    0 ]

  @DF-UKS Final Energy:  -796.36042154828249

   => Energetics <=

    Nuclear Repulsion Energy =             70.6362268134853508
    One-Electron Energy =               -1239.8177522601904457
    Two-Electron Energy =                 412.2488481851790993
    DFT Exchange-Correlation Energy =     -39.5613566825941732
    Empirical Dispersion Energy =           0.0000000000000000
    VV10 Nonlocal Energy =                  0.1336123958377141
    Total Energy =                       -796.3604215482823747

  UHF NO Occupations:
  HONO-2 :    2B3u 1.9980466
  HONO-1 :    2B2g 1.0000000
  HONO-0 :    2B3g 1.0000000
  LUNO+0 :    3B3u 0.0019534
  LUNO+1 :    3B2u 0.0019534
  LUNO+2 :    5B1u 0.0002572
  LUNO+3 :    6 Ag 0.0002028


Computation Completed


Properties will be evaluated at   0.000000,   0.000000,   0.000000 [a0]

Properties computed using the SCF density matrix

  Nuclear Dipole Moment: [e a0]
     X:     0.0000      Y:     0.0000      Z:     0.0000

  Electronic Dipole Moment: [e a0]
     X:     0.0000      Y:     0.0000      Z:     0.0000

  Dipole Moment: [e a0]
     X:     0.0000      Y:     0.0000      Z:     0.0000     Total:     0.0000

  Dipole Moment: [D]
     X:     0.0000      Y:     0.0000      Z:     0.0000     Total:     0.0000


*** tstop() called on d5-15.compute.lan at Wed Feb  3 17:13:50 2021
Module time:
	user time   =      51.11 seconds =       0.85 minutes
	system time =       0.07 seconds =       0.00 minutes
	total time  =         51 seconds =       0.85 minutes
Total time:
	user time   =     203.00 seconds =       3.38 minutes
	system time =       0.44 seconds =       0.01 minutes
	total time  =        203 seconds =       3.38 minutes

  //>>>>>>>>>>>>>>>>>>>>>>>>>>>>>>>>>>>//
  //    Loading displacement 2 of 3    //
  //<<<<<<<<<<<<<<<<<<<<<<<<<<<<<<<<<<<//

*** tstart() called on d5-15.compute.lan
*** at Wed Feb  3 17:13:50 2021

   => Loading Basis Set <=

    Name: AUG-CC-PVTZ
    Role: ORBITAL
    Keyword: BASIS
    atoms 1-2 entry S          line   906 file /apps/gb/PSI4/1.4.0/share/psi4/basis/aug-cc-pvtz.gbs 


         ---------------------------------------------------------
                                   SCF
               by Justin Turney, Rob Parrish, Andy Simmonett
                          and Daniel G. A. Smith
                              UKS Reference
                        1 Threads,   9536 MiB Core
         ---------------------------------------------------------

  ==> Geometry <==

    Molecular point group: d2h
    Full point group: D_inf_h

    Geometry (in Angstrom), charge = 0, multiplicity = 3:

       Center              X                  Y                   Z               Mass       
    ------------   -----------------  -----------------  -----------------  -----------------
         S            0.000000000000     0.000000000000    -0.959253603284    31.972071174400
         S            0.000000000000     0.000000000000     0.959253603284    31.972071174400

  Running in d2h symmetry.

  Rotational constants: A = ************  B =      0.28650  C =      0.28650 [cm^-1]
  Rotational constants: A = ************  B =   8589.13748  C =   8589.13748 [MHz]
  Nuclear repulsion =   70.611861903743701

  Charge       = 0
  Multiplicity = 3
  Electrons    = 32
  Nalpha       = 17
  Nbeta        = 15

  ==> Algorithm <==

  SCF Algorithm Type is DF.
  DIIS enabled.
  MOM disabled.
  Fractional occupation disabled.
  Guess Type is READ.
  Energy threshold   = 1.00e-08
  Density threshold  = 1.00e-08
  Integral threshold = 0.00e+00

  ==> Primary Basis <==

  Basis Set: AUG-CC-PVTZ
    Blend: AUG-CC-PVTZ
    Number of shells: 32
    Number of basis function: 100
    Number of Cartesian functions: 118
    Spherical Harmonics?: true
    Max angular momentum: 3

  ==> DFT Potential <==

   => Composite Functional: WB97M-V <= 

    wB97M-V Hyb-GGA Exchange-Correlation Functional

    N. Mardirossian and M. Head-Gordon, J. Chem. Phys. 144, 214110 (2016)

    Deriv               =              1
    GGA                 =           TRUE
    Meta                =           TRUE

    Exchange Hybrid     =           TRUE
    MP2 Hybrid          =          FALSE

   => Exchange-Correlation Functionals <=

    1.0000   wB97M-V exchange-correlation functional

   => Exact (HF) Exchange <=

    0.8500            HF,LR [omega = 0.3000]
    0.1500               HF 

   => VV10 Non-Local Parameters <=

    VV10 B              =     6.0000E+00
    VV10 C              =     1.0000E-02

   => Molecular Quadrature <=

    Radial Scheme          =       TREUTLER
    Pruning Scheme         =           NONE
    Nuclear Scheme         =       TREUTLER

    BS radius alpha        =              1
    Pruning alpha          =              1
    Radial Points          =             99
    Spherical Points       =            590
    Total Points           =         113342
    Total Blocks           =            982
    Max Points             =            256
    Max Functions          =            100
    Weights Tolerance      =       1.00E-15

   => Loading Basis Set <=

    Name: (AUG-CC-PVTZ AUX)
    Role: JKFIT
    Keyword: DF_BASIS_SCF
    atoms 1-2 entry S          line   730 file /apps/gb/PSI4/1.4.0/share/psi4/basis/aug-cc-pvtz-jkfit.gbs 

   => Loading Basis Set <=

    Name: AUG-CC-PVTZ
    Role: ORBITAL
    Keyword: BASIS
    atoms 1-2 entry S          line   906 file /apps/gb/PSI4/1.4.0/share/psi4/basis/aug-cc-pvtz.gbs 

  Reading orbitals from file 180, no projection.

  ==> Pre-Iterations <==

   -------------------------------------------------------
    Irrep   Nso     Nmo     Nalpha   Nbeta   Ndocc  Nsocc
   -------------------------------------------------------
     Ag        21      21       0       0       0       0
     B1g        5       5       0       0       0       0
     B2g       12      12       0       0       0       0
     B3g       12      12       0       0       0       0
     Au         5       5       0       0       0       0
     B1u       21      21       0       0       0       0
     B2u       12      12       0       0       0       0
     B3u       12      12       0       0       0       0
   -------------------------------------------------------
    Total     100     100      17      15      15       2
   -------------------------------------------------------

  ==> Integral Setup <==

  ==> DiskDFJK: Density-Fitted J/K Matrices <==

    J tasked:                  Yes
    K tasked:                  Yes
    wK tasked:                 Yes
    Omega:               3.000E-01
    OpenMP threads:              1
    Integrals threads:           1
    Memory [MiB]:             6378
    Algorithm:                Core
    Integral Cache:           NONE
    Schwarz Cutoff:          1E-12
    Fitting Condition:       1E-10

   => Auxiliary Basis Set <=

  Basis Set: (AUG-CC-PVTZ AUX)
    Blend: AUG-CC-PVTZ-JKFIT
    Number of shells: 84
    Number of basis function: 292
    Number of Cartesian functions: 360
    Spherical Harmonics?: true
    Max angular momentum: 4

  Cached 100.0% of DFT collocation blocks in 0.756 [GiB].

  Minimum eigenvalue in the overlap matrix is 2.2499259709E-04.
  Using Symmetric Orthogonalization.

  SCF Guess: Orbitals guess was supplied from a previous computation.

  ==> Iterations <==

                           Total Energy        Delta E     RMS |[F,P]|

   @DF-UKS iter   0:  -796.36002028154644   -7.96360e+02   4.47775e-05 
   @DF-UKS iter   1:  -796.36040195472913   -3.81673e-04   6.48155e-06 DIIS
   @DF-UKS iter   2:  -796.36040198523915   -3.05100e-08   4.01336e-06 DIIS
   @DF-UKS iter   3:  -796.36040199796594   -1.27268e-08   2.78042e-07 DIIS
   @DF-UKS iter   4:  -796.36040199807815   -1.12209e-10   7.07464e-08 DIIS
   @DF-UKS iter   5:  -796.36040199808645   -8.29914e-12   1.25351e-08 DIIS
   @DF-UKS iter   6:  -796.36040199808758   -1.13687e-12   2.32499e-09 DIIS
  Energy and wave function converged.


  ==> Post-Iterations <==

   @Spin Contamination Metric:   8.834724765E-03
   @S^2 Expected:                2.000000000E+00
   @S^2 Observed:                2.008834725E+00
   @S   Expected:                1.000000000E+00
   @S   Observed:                1.000000000E+00

    Orbital Energies [Eh]
    ---------------------

    Alpha Occupied:                                                       

       1B1u  -89.263887     1Ag   -89.263884     2Ag    -8.174343  
       2B1u   -8.174208     1B2u   -6.083513     1B3u   -6.083513  
       1B3g   -6.083477     1B2g   -6.083477     3Ag    -6.081953  
       3B1u   -6.081333     4Ag    -0.955567     4B1u   -0.749088  
       5Ag    -0.493860     2B2u   -0.476374     2B3u   -0.476374  
       2B3g   -0.335954     2B2g   -0.335954  

    Alpha Virtual:                                                        

       5B1u    0.026782     6Ag     0.065316     3B2u    0.067225  
       3B3u    0.067225     7Ag     0.083371     6B1u    0.093478  
       3B2g    0.095225     3B3g    0.095225     8Ag     0.184220  
       1B1g    0.184220     7B1u    0.195237     4B3u    0.233972  
       4B2u    0.233972     9Ag     0.272463     1Au     0.291915  
       8B1u    0.291915     9B1u    0.356979     4B2g    0.357235  
       4B3g    0.357235     5B3u    0.449640     5B2u    0.449640  
       6B3u    0.542132     6B2u    0.542132    10Ag     0.547246  
      10B1u    0.548862    11Ag     0.556287    12Ag     0.562632  
       2B1g    0.562634     5B2g    0.565895     5B3g    0.565895  
       2Au     0.649844    11B1u    0.649847    13Ag     0.664319  
       7B3u    0.701055     7B2u    0.701055     6B2g    0.739506  
       6B3g    0.739506     3B1g    0.775559    14Ag     0.775566  
       7B2g    0.849841     7B3g    0.849841    12B1u    0.860118  
       8B2u    1.013462     8B3u    1.013462    13B1u    1.045423  
       3Au     1.045431    14B1u    1.078052     8B2g    1.206638  
       8B3g    1.206638    15Ag     1.283795    15B1u    1.411661  
       4B1g    1.738334    16Ag     1.738341     9B2u    1.794386  
       9B3u    1.794386    16B1u    1.798571     4Au     1.814810  
      17B1u    1.814816     9B2g    1.915317     9B3g    1.915317  
      17Ag     1.917665     5B1g    2.007201    18Ag     2.007204  
      10B2u    2.015153    10B3u    2.015153    19Ag     2.023354  
      11B3u    2.060869    11B2u    2.060869    12B2u    2.067401  
      12B3u    2.067401    10B3g    2.137622    10B2g    2.137622  
      18B1u    2.296136     5Au     2.296139    11B2g    2.331164  
      11B3g    2.331164    19B1u    2.440352    12B2g    2.628937  
      12B3g    2.628937    20Ag     2.631816    20B1u    3.644448  
      21Ag     4.596281    21B1u    5.355461  

    Beta Occupied:                                                        

       1B1u  -89.257635     1Ag   -89.257634     2Ag    -8.168121  
       2B1u   -8.167916     3Ag    -6.078069     3B1u   -6.077450  
       1B2u   -6.070057     1B3u   -6.070057     1B3g   -6.070007  
       1B2g   -6.070007     4Ag    -0.929372     4B1u   -0.693539  
       5Ag    -0.468404     2B2u   -0.419395     2B3u   -0.419395  

    Beta Virtual:                                                         

       2B3g   -0.065296     2B2g   -0.065296     5B1u    0.028096  
       6Ag     0.064044     3B2u    0.066671     3B3u    0.066671  
       7Ag     0.086152     3B2g    0.096222     3B3g    0.096222  
       6B1u    0.108397     8Ag     0.191869     1B1g    0.191869  
       7B1u    0.196206     4B3u    0.251958     4B2u    0.251958  
       9Ag     0.276560     1Au     0.299104     8B1u    0.299105  
       4B2g    0.359256     4B3g    0.359256     9B1u    0.359530  
       5B3u    0.459900     5B2u    0.459900    10Ag     0.549046  
      10B1u    0.557026     6B3u    0.562087     6B2u    0.562087  
      11Ag     0.563714     5B2g    0.571356     5B3g    0.571356  
      12Ag     0.581522     2B1g    0.581523    13Ag     0.680435  
       2Au     0.685067    11B1u    0.685070     7B3u    0.706159  
       7B2u    0.706159     6B2g    0.761122     6B3g    0.761122  
       3B1g    0.787837    14Ag     0.787843     7B2g    0.856323  
       7B3g    0.856323    12B1u    0.875752     8B2u    1.020063  
       8B3u    1.020063    13B1u    1.051161     3Au     1.051169  
      14B1u    1.084146     8B2g    1.219974     8B3g    1.219974  
      15Ag     1.313731    15B1u    1.441295     4B1g    1.793184  
      16Ag     1.793194     9B2u    1.811674     9B3u    1.811674  
      16B1u    1.816151     4Au     1.869566    17B1u    1.869575  
      17Ag     1.928151     9B2g    1.963714     9B3g    1.963714  
       5B1g    2.036195    18Ag     2.036199    19Ag     2.040218  
      10B2u    2.042836    10B3u    2.042836    11B3u    2.115224  
      11B2u    2.115224    12B2u    2.119214    12B3u    2.119214  
      10B3g    2.187939    10B2g    2.187939    18B1u    2.329726  
       5Au     2.329728    11B2g    2.362686    11B3g    2.362686  
      19B1u    2.461944    20Ag     2.648902    12B2g    2.659483  
      12B3g    2.659483    20B1u    3.654284    21Ag     4.622727  
      21B1u    5.378035  

    Final Occupation by Irrep:
             Ag   B1g   B2g   B3g    Au   B1u   B2u   B3u 
    DOCC [     5,    0,    1,    1,    0,    4,    2,    2 ]
    SOCC [     0,    0,    1,    1,    0,    0,    0,    0 ]

  @DF-UKS Final Energy:  -796.36040199808758

   => Energetics <=

    Nuclear Repulsion Energy =             70.6118619037437014
    One-Electron Energy =               -1239.7687781745867142
    Two-Electron Energy =                 412.2240065370542652
    DFT Exchange-Correlation Energy =     -39.5611055437154420
    Empirical Dispersion Energy =           0.0000000000000000
    VV10 Nonlocal Energy =                  0.1336132794168573
    Total Energy =                       -796.3604019980874682

  UHF NO Occupations:
  HONO-2 :    2B2u 1.9980452
  HONO-1 :    2B2g 1.0000000
  HONO-0 :    2B3g 1.0000000
  LUNO+0 :    3B2u 0.0019548
  LUNO+1 :    3B3u 0.0019548
  LUNO+2 :    5B1u 0.0002572
  LUNO+3 :    6 Ag 0.0002028


Computation Completed


Properties will be evaluated at   0.000000,   0.000000,   0.000000 [a0]

Properties computed using the SCF density matrix

  Nuclear Dipole Moment: [e a0]
     X:     0.0000      Y:     0.0000      Z:     0.0000

  Electronic Dipole Moment: [e a0]
     X:     0.0000      Y:     0.0000      Z:     0.0000

  Dipole Moment: [e a0]
     X:     0.0000      Y:     0.0000      Z:     0.0000     Total:     0.0000

  Dipole Moment: [D]
     X:     0.0000      Y:     0.0000      Z:     0.0000     Total:     0.0000


*** tstop() called on d5-15.compute.lan at Wed Feb  3 17:14:27 2021
Module time:
	user time   =      36.53 seconds =       0.61 minutes
	system time =       0.05 seconds =       0.00 minutes
	total time  =         37 seconds =       0.62 minutes
Total time:
	user time   =     239.53 seconds =       3.99 minutes
	system time =       0.49 seconds =       0.01 minutes
	total time  =        240 seconds =       4.00 minutes

  //>>>>>>>>>>>>>>>>>>>>>>>>>>>>>>>>>>>//
  //    Loading displacement 3 of 3    //
  //<<<<<<<<<<<<<<<<<<<<<<<<<<<<<<<<<<<//

*** tstart() called on d5-15.compute.lan
*** at Wed Feb  3 17:14:27 2021

   => Loading Basis Set <=

    Name: AUG-CC-PVTZ
    Role: ORBITAL
    Keyword: BASIS
    atoms 1-2 entry S          line   906 file /apps/gb/PSI4/1.4.0/share/psi4/basis/aug-cc-pvtz.gbs 


         ---------------------------------------------------------
                                   SCF
               by Justin Turney, Rob Parrish, Andy Simmonett
                          and Daniel G. A. Smith
                              UKS Reference
                        1 Threads,   9536 MiB Core
         ---------------------------------------------------------

  ==> Geometry <==

    Molecular point group: d2h
    Full point group: D_inf_h

    Geometry (in Angstrom), charge = 0, multiplicity = 3:

       Center              X                  Y                   Z               Mass       
    ------------   -----------------  -----------------  -----------------  -----------------
         S            0.000000000000     0.000000000000    -0.958591842923    31.972071174400
         S            0.000000000000     0.000000000000     0.958591842923    31.972071174400

  Running in d2h symmetry.

  Rotational constants: A = ************  B =      0.28690  C =      0.28690 [cm^-1]
  Rotational constants: A = ************  B =   8601.00053  C =   8601.00053 [MHz]
  Nuclear repulsion =   70.660608543453066

  Charge       = 0
  Multiplicity = 3
  Electrons    = 32
  Nalpha       = 17
  Nbeta        = 15

  ==> Algorithm <==

  SCF Algorithm Type is DF.
  DIIS enabled.
  MOM disabled.
  Fractional occupation disabled.
  Guess Type is READ.
  Energy threshold   = 1.00e-08
  Density threshold  = 1.00e-08
  Integral threshold = 0.00e+00

  ==> Primary Basis <==

  Basis Set: AUG-CC-PVTZ
    Blend: AUG-CC-PVTZ
    Number of shells: 32
    Number of basis function: 100
    Number of Cartesian functions: 118
    Spherical Harmonics?: true
    Max angular momentum: 3

  ==> DFT Potential <==

   => Composite Functional: WB97M-V <= 

    wB97M-V Hyb-GGA Exchange-Correlation Functional

    N. Mardirossian and M. Head-Gordon, J. Chem. Phys. 144, 214110 (2016)

    Deriv               =              1
    GGA                 =           TRUE
    Meta                =           TRUE

    Exchange Hybrid     =           TRUE
    MP2 Hybrid          =          FALSE

   => Exchange-Correlation Functionals <=

    1.0000   wB97M-V exchange-correlation functional

   => Exact (HF) Exchange <=

    0.8500            HF,LR [omega = 0.3000]
    0.1500               HF 

   => VV10 Non-Local Parameters <=

    VV10 B              =     6.0000E+00
    VV10 C              =     1.0000E-02

   => Molecular Quadrature <=

    Radial Scheme          =       TREUTLER
    Pruning Scheme         =           NONE
    Nuclear Scheme         =       TREUTLER

    BS radius alpha        =              1
    Pruning alpha          =              1
    Radial Points          =             99
    Spherical Points       =            590
    Total Points           =         113350
    Total Blocks           =            982
    Max Points             =            254
    Max Functions          =            100
    Weights Tolerance      =       1.00E-15

   => Loading Basis Set <=

    Name: (AUG-CC-PVTZ AUX)
    Role: JKFIT
    Keyword: DF_BASIS_SCF
    atoms 1-2 entry S          line   730 file /apps/gb/PSI4/1.4.0/share/psi4/basis/aug-cc-pvtz-jkfit.gbs 

   => Loading Basis Set <=

    Name: AUG-CC-PVTZ
    Role: ORBITAL
    Keyword: BASIS
    atoms 1-2 entry S          line   906 file /apps/gb/PSI4/1.4.0/share/psi4/basis/aug-cc-pvtz.gbs 

  Reading orbitals from file 180, no projection.

  ==> Pre-Iterations <==

   -------------------------------------------------------
    Irrep   Nso     Nmo     Nalpha   Nbeta   Ndocc  Nsocc
   -------------------------------------------------------
     Ag        21      21       0       0       0       0
     B1g        5       5       0       0       0       0
     B2g       12      12       0       0       0       0
     B3g       12      12       0       0       0       0
     Au         5       5       0       0       0       0
     B1u       21      21       0       0       0       0
     B2u       12      12       0       0       0       0
     B3u       12      12       0       0       0       0
   -------------------------------------------------------
    Total     100     100      17      15      15       2
   -------------------------------------------------------

  ==> Integral Setup <==

  ==> DiskDFJK: Density-Fitted J/K Matrices <==

    J tasked:                  Yes
    K tasked:                  Yes
    wK tasked:                 Yes
    Omega:               3.000E-01
    OpenMP threads:              1
    Integrals threads:           1
    Memory [MiB]:             6377
    Algorithm:                Core
    Integral Cache:           NONE
    Schwarz Cutoff:          1E-12
    Fitting Condition:       1E-10

   => Auxiliary Basis Set <=

  Basis Set: (AUG-CC-PVTZ AUX)
    Blend: AUG-CC-PVTZ-JKFIT
    Number of shells: 84
    Number of basis function: 292
    Number of Cartesian functions: 360
    Spherical Harmonics?: true
    Max angular momentum: 4

  Cached 100.0% of DFT collocation blocks in 0.756 [GiB].

  Minimum eigenvalue in the overlap matrix is 2.2429645531E-04.
  Using Symmetric Orthogonalization.

  SCF Guess: Orbitals guess was supplied from a previous computation.

  ==> Iterations <==

                           Total Energy        Delta E     RMS |[F,P]|

   @DF-UKS iter   0:  -796.36082299026964   -7.96361e+02   4.48480e-05 
   @DF-UKS iter   1:  -796.36044057097160    3.82419e-04   6.48099e-06 DIIS
   @DF-UKS iter   2:  -796.36044060144286   -3.04713e-08   4.01324e-06 DIIS
   @DF-UKS iter   3:  -796.36044061416374   -1.27209e-08   2.78296e-07 DIIS
[...]
                              UKS Reference
                        1 Threads,   9536 MiB Core
         ---------------------------------------------------------

  ==> Geometry <==

    Molecular point group: d2h
    Full point group: D_inf_h

    Geometry (in Angstrom), charge = 0, multiplicity = 3:

       Center              X                  Y                   Z               Mass       
    ------------   -----------------  -----------------  -----------------  -----------------
         S            0.000000000000     0.000000000000    -0.946149248729    31.972071174400
         S            0.000000000000     0.000000000000     0.946149248729    31.972071174400

  Running in d2h symmetry.

  Rotational constants: A = ************  B =      0.29449  C =      0.29449 [cm^-1]
  Rotational constants: A = ************  B =   8828.70763  C =   8828.70763 [MHz]
  Nuclear repulsion =   71.589850181435338

  Charge       = 0
  Multiplicity = 3
  Electrons    = 32
  Nalpha       = 17
  Nbeta        = 15

  ==> Algorithm <==

  SCF Algorithm Type is DF.
  DIIS enabled.
  MOM disabled.
  Fractional occupation disabled.
  Guess Type is SAD.
  Energy threshold   = 1.00e-10
  Density threshold  = 1.00e-10
  Integral threshold = 0.00e+00

  ==> Primary Basis <==

  Basis Set: AUG-CC-PVTZ
    Blend: AUG-CC-PVTZ
    Number of shells: 32
    Number of basis function: 100
    Number of Cartesian functions: 118
    Spherical Harmonics?: true
    Max angular momentum: 3

  ==> DFT Potential <==

   => Composite Functional: WB97M-V <= 

    wB97M-V Hyb-GGA Exchange-Correlation Functional

    N. Mardirossian and M. Head-Gordon, J. Chem. Phys. 144, 214110 (2016)

    Deriv               =              1
    GGA                 =           TRUE
    Meta                =           TRUE

    Exchange Hybrid     =           TRUE
    MP2 Hybrid          =          FALSE

   => Exchange-Correlation Functionals <=

    1.0000   wB97M-V exchange-correlation functional

   => Exact (HF) Exchange <=

    0.8500            HF,LR [omega = 0.3000]
    0.1500               HF 

   => VV10 Non-Local Parameters <=

    VV10 B              =     6.0000E+00
    VV10 C              =     1.0000E-02

   => Molecular Quadrature <=

    Radial Scheme          =       TREUTLER
    Pruning Scheme         =           NONE
    Nuclear Scheme         =       TREUTLER

    BS radius alpha        =              1
    Pruning alpha          =              1
    Radial Points          =             99
    Spherical Points       =            590
    Total Points           =         113350
    Total Blocks           =            980
    Max Points             =            256
    Max Functions          =            100
    Weights Tolerance      =       1.00E-15

   => Loading Basis Set <=

    Name: (AUG-CC-PVTZ AUX)
    Role: JKFIT
    Keyword: DF_BASIS_SCF
    atoms 1-2 entry S          line   730 file /apps/gb/PSI4/1.4.0/share/psi4/basis/aug-cc-pvtz-jkfit.gbs 

  ==> Pre-Iterations <==

   -------------------------------------------------------
    Irrep   Nso     Nmo     Nalpha   Nbeta   Ndocc  Nsocc
   -------------------------------------------------------
     Ag        21      21       0       0       0       0
     B1g        5       5       0       0       0       0
     B2g       12      12       0       0       0       0
     B3g       12      12       0       0       0       0
     Au         5       5       0       0       0       0
     B1u       21      21       0       0       0       0
     B2u       12      12       0       0       0       0
     B3u       12      12       0       0       0       0
   -------------------------------------------------------
    Total     100     100      17      15      15       2
   -------------------------------------------------------

  ==> Integral Setup <==

  ==> DiskDFJK: Density-Fitted J/K Matrices <==

    J tasked:                  Yes
    K tasked:                  Yes
    wK tasked:                 Yes
    Omega:               3.000E-01
    OpenMP threads:              1
    Integrals threads:           1
    Memory [MiB]:             6377
    Algorithm:                Core
    Integral Cache:           NONE
    Schwarz Cutoff:          1E-12
    Fitting Condition:       1E-10

   => Auxiliary Basis Set <=

  Basis Set: (AUG-CC-PVTZ AUX)
    Blend: AUG-CC-PVTZ-JKFIT
    Number of shells: 84
    Number of basis function: 292
    Number of Cartesian functions: 360
    Spherical Harmonics?: true
    Max angular momentum: 4

  Cached 100.0% of DFT collocation blocks in 0.757 [GiB].

  Minimum eigenvalue in the overlap matrix is 2.1158122463E-04.
  Using Symmetric Orthogonalization.

  SCF Guess: Superposition of Atomic Densities via on-the-fly atomic UHF.

  ==> Iterations <==

                           Total Energy        Delta E     RMS |[F,P]|

   @DF-UKS iter SAD:  -796.01983928651964   -7.96020e+02   0.00000e+00 
   @DF-UKS iter   1:  -796.34501647098773   -3.25177e-01   5.77075e-03 DIIS
   @DF-UKS iter   2:  -796.35925504096440   -1.42386e-02   1.92703e-03 DIIS
   @DF-UKS iter   3:  -796.36066519836686   -1.41016e-03   2.26234e-04 DIIS
   @DF-UKS iter   4:  -796.36078781293986   -1.22615e-04   4.73879e-05 DIIS
   @DF-UKS iter   5:  -796.36079091306647   -3.10013e-06   1.94690e-05 DIIS
   @DF-UKS iter   6:  -796.36079148602687   -5.72960e-07   2.67384e-06 DIIS
   @DF-UKS iter   7:  -796.36079150678188   -2.07550e-08   4.83641e-07 DIIS
   @DF-UKS iter   8:  -796.36079150740920   -6.27324e-10   7.95659e-08 DIIS
   @DF-UKS iter   9:  -796.36079150742341   -1.42109e-11   1.13519e-08 DIIS
   @DF-UKS iter  10:  -796.36079150742421   -7.95808e-13   1.69371e-09 DIIS
   @DF-UKS iter  11:  -796.36079150742421    0.00000e+00   2.38124e-10 DIIS
   @DF-UKS iter  12:  -796.36079150742353    6.82121e-13   2.60044e-11 DIIS
  Energy and wave function converged.


  ==> Post-Iterations <==

   @Spin Contamination Metric:   8.622165441E-03
   @S^2 Expected:                2.000000000E+00
   @S^2 Observed:                2.008622165E+00
   @S   Expected:                1.000000000E+00
   @S   Observed:                1.000000000E+00

    Orbital Energies [Eh]
    ---------------------

    Alpha Occupied:                                                       

       1B1u  -89.261624     1Ag   -89.261622     2Ag    -8.172856  
       2B1u   -8.172694     1B2u   -6.081979     1B3u   -6.081979  
       1B3g   -6.081933     1B2g   -6.081933     3Ag    -6.080435  
       3B1u   -6.079693     4Ag    -0.962109     4B1u   -0.746100  
       5Ag    -0.495551     2B2u   -0.479608     2B3u   -0.479608  
       2B3g   -0.333015     2B2g   -0.333015  

    Alpha Virtual:                                                        

       5B1u    0.028651     6Ag     0.065428     3B2u    0.066976  
       3B3u    0.066976     7Ag     0.082989     3B3g    0.095370  
       3B2g    0.095370     6B1u    0.099332     8Ag     0.183703  
       1B1g    0.183703     7B1u    0.196075     4B2u    0.235096  
       4B3u    0.235096     9Ag     0.270760     1Au     0.293090  
       8B1u    0.293091     4B2g    0.357692     4B3g    0.357692  
       9B1u    0.360646     5B2u    0.448262     5B3u    0.448262  
       6B2u    0.542332     6B3u    0.542332    10Ag     0.544073  
      10B1u    0.547654    11Ag     0.555653    12Ag     0.560654  
       2B1g    0.560655     5B2g    0.566807     5B3g    0.566807  
       2Au     0.651205    11B1u    0.651208    13Ag     0.670297  
       7B2u    0.700154     7B3u    0.700154     6B2g    0.744556  
       6B3g    0.744556     3B1g    0.779251    14Ag     0.779258  
       7B2g    0.851982     7B3g    0.851982    12B1u    0.869708  
       8B2u    1.018424     8B3u    1.018424    13B1u    1.049594  
       3Au     1.049601    14B1u    1.091120     8B2g    1.211055  
       8B3g    1.211055    15Ag     1.292702    15B1u    1.408780  
       4B1g    1.739368    16Ag     1.739374     9B2u    1.787000  
       9B3u    1.787000    16B1u    1.798079     4Au     1.817153  
      17B1u    1.817158     9B2g    1.910746     9B3g    1.910746  
      17Ag     1.912460     5B1g    1.999240    18Ag     1.999244  
      19Ag     2.016239    10B3u    2.021194    10B2u    2.021194  
      11B3u    2.065689    11B2u    2.065689    12B3u    2.069097  
      12B2u    2.069097    10B2g    2.139928    10B3g    2.139928  
      18B1u    2.306672     5Au     2.306673    11B2g    2.348834  
      11B3g    2.348834    19B1u    2.457178    12B2g    2.647686  
      12B3g    2.647686    20Ag     2.679851    20B1u    3.631316  
      21Ag     4.646469    21B1u    5.394934  

    Beta Occupied:                                                        

       1B1u  -89.255393     1Ag   -89.255393     2Ag    -8.166654  
       2B1u   -8.166420     3Ag    -6.076563     3B1u   -6.075821  
       1B2u   -6.068566     1B3u   -6.068566     1B3g   -6.068506  
       1B2g   -6.068506     4Ag    -0.936504     4B1u   -0.690427  
       5Ag    -0.469824     2B2u   -0.423475     2B3u   -0.423475  

    Beta Virtual:                                                         

       2B2g   -0.062204     2B3g   -0.062204     5B1u    0.029269  
       6Ag     0.064060     3B2u    0.066200     3B3u    0.066200  
       7Ag     0.085632     3B3g    0.096327     3B2g    0.096327  
       6B1u    0.114422     8Ag     0.191323     1B1g    0.191324  
       7B1u    0.197249     4B3u    0.253178     4B2u    0.253178  
       9Ag     0.274745     1Au     0.299981     8B1u    0.299982  
       4B2g    0.359524     4B3g    0.359524     9B1u    0.363194  
       5B2u    0.458300     5B3u    0.458300    10Ag     0.547091  
      10B1u    0.555875    11Ag     0.561772     6B3u    0.562542  
       6B2u    0.562542     5B2g    0.572044     5B3g    0.572044  
      12Ag     0.579286     2B1g    0.579287    13Ag     0.686287  
       2Au     0.686550    11B1u    0.686554     7B2u    0.705293  
       7B3u    0.705293     6B2g    0.766089     6B3g    0.766089  
       3B1g    0.791702    14Ag     0.791709     7B2g    0.858465  
       7B3g    0.858465    12B1u    0.885137     8B2u    1.025113  
       8B3u    1.025113    13B1u    1.055522     3Au     1.055528  
      14B1u    1.097751     8B2g    1.224786     8B3g    1.224786  
      15Ag     1.323640    15B1u    1.436982     4B1g    1.793972  
      16Ag     1.793982     9B3u    1.803409     9B2u    1.803409  
      16B1u    1.816860     4Au     1.871793    17B1u    1.871801  
      17Ag     1.922981     9B2g    1.959391     9B3g    1.959391  
       5B1g    2.027992    18Ag     2.027997    19Ag     2.033059  
      10B2u    2.053338    10B3u    2.053338    11B3u    2.117230  
      11B2u    2.117230    12B3u    2.119678    12B2u    2.119678  
      10B2g    2.190125    10B3g    2.190125    18B1u    2.340546  
       5Au     2.340546    11B2g    2.380198    11B3g    2.380198  
      19B1u    2.478936    12B2g    2.678679    12B3g    2.678679  
      20Ag     2.697034    20B1u    3.641544    21Ag     4.672777  
      21B1u    5.417378  

    Final Occupation by Irrep:
             Ag   B1g   B2g   B3g    Au   B1u   B2u   B3u 
    DOCC [     5,    0,    1,    1,    0,    4,    2,    2 ]
    SOCC [     0,    0,    1,    1,    0,    0,    0,    0 ]

  @DF-UKS Final Energy:  -796.36079150742353

   => Energetics <=

    Nuclear Repulsion Energy =             71.5898501814353381
    One-Electron Energy =               -1241.7336059514582303
    Two-Electron Energy =                 413.2206830282399892
    DFT Exchange-Correlation Energy =     -39.5712971412164336
    Empirical Dispersion Energy =           0.0000000000000000
    VV10 Nonlocal Energy =                  0.1335783755757367
    Total Energy =                       -796.3607915074234143

  UHF NO Occupations:
  HONO-2 :    2B3u 1.9980996
  HONO-1 :    2B3g 1.0000000
  HONO-0 :    2B2g 1.0000000
  LUNO+0 :    3B3u 0.0019004
  LUNO+1 :    3B2u 0.0019004
  LUNO+2 :    5B1u 0.0002590
  LUNO+3 :    6 Ag 0.0002033


Computation Completed


Properties will be evaluated at   0.000000,   0.000000,   0.000000 [a0]

Properties computed using the SCF density matrix

  Nuclear Dipole Moment: [e a0]
     X:     0.0000      Y:     0.0000      Z:     0.0000

  Electronic Dipole Moment: [e a0]
     X:     0.0000      Y:     0.0000      Z:     0.0000

  Dipole Moment: [e a0]
     X:     0.0000      Y:     0.0000      Z:     0.0000     Total:     0.0000

  Dipole Moment: [D]
     X:     0.0000      Y:     0.0000      Z:     0.0000     Total:     0.0000


*** tstop() called on d5-15.compute.lan at Wed Feb  3 17:29:49 2021
Module time:
	user time   =      64.92 seconds =       1.08 minutes
	system time =       0.06 seconds =       0.00 minutes
	total time  =         65 seconds =       1.08 minutes
Total time:
	user time   =    1160.09 seconds =      19.33 minutes
	system time =       1.51 seconds =       0.03 minutes
	total time  =       1162 seconds =      19.37 minutes

         ----------------------------------------------------------
                                   FINDIF
                     R. A. King and Jonathon Misiewicz
         ---------------------------------------------------------

  Computing second-derivative from energies using projected, 
  symmetry-adapted, cartesian coordinates.

  3 energies passed in, including the reference geometry.
    Using 3-point formula.
    Energy without displacement: -796.3607917785
    Check energies below for precision!
    0: -1 :      -796.3607915059
    0: 1  :      -796.3607915074

-------------------------------------------------------------


  ==> Harmonic Vibrational Analysis <==

  non-mass-weighted Hessian:       Symmetric? True   Hermitian? True   Lin Dep Dim?  5 (0)
  projection of translations (True) and rotations (True) removed 5 degrees of freedom (5)
  total projector:                 Symmetric? True   Hermitian? True   Lin Dep Dim?  5 (5)
  mass-weighted Hessian:           Symmetric? True   Hermitian? True   Lin Dep Dim?  5 (0)
  pre-proj  low-frequency mode:    0.0000  [cm^-1]
  pre-proj  low-frequency mode:    0.0000  [cm^-1]
  pre-proj  low-frequency mode:    0.0000  [cm^-1]
  pre-proj  low-frequency mode:    0.0000  [cm^-1]
  pre-proj  low-frequency mode:    0.0000  [cm^-1]
  pre-proj  all modes:['0.0000' '0.0000' '0.0000' '0.0000' '0.0000' '758.1361']
  projected mass-weighted Hessian: Symmetric? True   Hermitian? True   Lin Dep Dim?  5 (5)
  post-proj low-frequency mode:    0.0000i [cm^-1] (TR)
  post-proj low-frequency mode:    0.0000  [cm^-1] (TR)
  post-proj low-frequency mode:    0.0000  [cm^-1] (TR)
  post-proj low-frequency mode:    0.0000  [cm^-1] (TR)
  post-proj low-frequency mode:    0.0000  [cm^-1] (TR)
  post-proj  all modes:['0.0000i' '0.0000' '0.0000' '0.0000' '0.0000' '758.1361']

  Vibration                       6           
  Freq [cm^-1]                 758.1361       
  Irrep                           Ag          
  Reduced mass [u]             31.9721        
  Force const [mDyne/A]        10.8272        
  Turning point v=0 [a0]        0.0705        
  RMS dev v=0 [a0 u^1/2]        0.2818        
  Char temp [K]               1090.7891       
  ----------------------------------------------------------------------------------
      1   S                0.00  0.00  0.71   
      2   S                0.00  0.00 -0.71   

  ==> Thermochemistry Components <==

  Entropy, S
    Electronic S            2.183 [cal/(mol K)]        9.134 [J/(mol K)]       0.00347910 [mEh/K] (multiplicity = 3)
    Translational S        38.385 [cal/(mol K)]      160.603 [J/(mol K)]       0.06117054 [mEh/K] (mol. weight = 63.9441 [u], P = 101325.00 [Pa])
    Rotational S           13.640 [cal/(mol K)]       57.069 [J/(mol K)]       0.02173652 [mEh/K] (symmetry no. = 2)
    Vibrational S           0.244 [cal/(mol K)]        1.022 [J/(mol K)]       0.00038915 [mEh/K]
  Total S                  54.452 [cal/(mol K)]      227.829 [J/(mol K)]       0.08677531 [mEh/K]
  Correction S              0.000 [cal/(mol K)]        0.000 [J/(mol K)]       0.00000000 [mEh/K]

  Constant volume heat capacity, Cv
    Electronic Cv           0.000 [cal/(mol K)]        0.000 [J/(mol K)]       0.00000000 [mEh/K]
    Translational Cv        2.981 [cal/(mol K)]       12.472 [J/(mol K)]       0.00475022 [mEh/K]
    Rotational Cv           1.987 [cal/(mol K)]        8.314 [J/(mol K)]       0.00316681 [mEh/K]
    Vibrational Cv          0.722 [cal/(mol K)]        3.022 [J/(mol K)]       0.00115089 [mEh/K]
  Total Cv                  5.690 [cal/(mol K)]       23.808 [J/(mol K)]       0.00906792 [mEh/K]
  Correction Cv             0.000 [cal/(mol K)]        0.000 [J/(mol K)]       0.00000000 [mEh/K]

  Constant pressure heat capacity, Cp
    Electronic Cp           0.000 [cal/(mol K)]        0.000 [J/(mol K)]       0.00000000 [mEh/K]
    Translational Cp        4.968 [cal/(mol K)]       20.786 [J/(mol K)]       0.00791703 [mEh/K]
    Rotational Cp           1.987 [cal/(mol K)]        8.314 [J/(mol K)]       0.00316681 [mEh/K]
    Vibrational Cp          0.722 [cal/(mol K)]        3.022 [J/(mol K)]       0.00115089 [mEh/K]
  Total Cp                  7.677 [cal/(mol K)]       32.122 [J/(mol K)]       0.01223473 [mEh/K]
  Correction Cp             0.000 [cal/(mol K)]        0.000 [J/(mol K)]       0.00000000 [mEh/K]

  ==> Thermochemistry Energy Analysis <==

  Raw electronic energy, E0
  Total E0, Electronic energy at well bottom at 0 [K]                 -796.36079178 [Eh]

  Zero-point energy, ZPE_vib = Sum_i nu_i / 2
    Electronic ZPE          0.000 [kcal/mol]        0.000 [kJ/mol]       0.00000000 [Eh]
    Translational ZPE       0.000 [kcal/mol]        0.000 [kJ/mol]       0.00000000 [Eh]
    Rotational ZPE          0.000 [kcal/mol]        0.000 [kJ/mol]       0.00000000 [Eh]
    Vibrational ZPE         1.084 [kcal/mol]        4.535 [kJ/mol]       0.00172716 [Eh]         379.068 [cm^-1]
  Correction ZPE            1.084 [kcal/mol]        4.535 [kJ/mol]       0.00172716 [Eh]         379.068 [cm^-1]
  Total ZPE, Electronic energy at 0 [K]                               -796.35906462 [Eh]

  Thermal Energy, E (includes ZPE)
    Electronic E            0.000 [kcal/mol]        0.000 [kJ/mol]       0.00000000 [Eh]
    Translational E         0.889 [kcal/mol]        3.718 [kJ/mol]       0.00141628 [Eh]
    Rotational E            0.592 [kcal/mol]        2.479 [kJ/mol]       0.00094418 [Eh]
    Vibrational E           1.141 [kcal/mol]        4.775 [kJ/mol]       0.00181854 [Eh]
  Correction E              2.622 [kcal/mol]       10.972 [kJ/mol]       0.00417900 [Eh]
  Total E, Electronic energy at  298.15 [K]                           -796.35661278 [Eh]

  Enthalpy, H_trans = E_trans + k_B * T
    Electronic H            0.000 [kcal/mol]        0.000 [kJ/mol]       0.00000000 [Eh]
    Translational H         1.481 [kcal/mol]        6.197 [kJ/mol]       0.00236046 [Eh]
    Rotational H            0.592 [kcal/mol]        2.479 [kJ/mol]       0.00094418 [Eh]
    Vibrational H           1.141 [kcal/mol]        4.775 [kJ/mol]       0.00181854 [Eh]
  Correction H              3.215 [kcal/mol]       13.451 [kJ/mol]       0.00512318 [Eh]
  Total H, Enthalpy at  298.15 [K]                                    -796.35566860 [Eh]

  Gibbs free energy, G = H - T * S
    Electronic G           -0.651 [kcal/mol]       -2.723 [kJ/mol]      -0.00103729 [Eh]
    Translational G        -9.963 [kcal/mol]      -41.686 [kJ/mol]      -0.01587754 [Eh]
    Rotational G           -3.474 [kcal/mol]      -14.536 [kJ/mol]      -0.00553656 [Eh]
    Vibrational G           1.068 [kcal/mol]        4.470 [kJ/mol]       0.00170251 [Eh]
  Correction G            -13.020 [kcal/mol]      -54.476 [kJ/mol]      -0.02074888 [Eh]
  Total G, Free enthalpy at  298.15 [K]                               -796.38154065 [Eh]

    Psi4 stopped on: Wednesday, 03 February 2021 05:29PM
    Psi4 wall time for execution: 0:19:22.61

*** Psi4 exiting successfully. Buy a developer a beer!
