
    -----------------------------------------------------------------------
          Psi4: An Open-Source Ab Initio Electronic Structure Package
                               Psi4 1.3.2 release

                         Git: Rev {HEAD} ecbda83 


    R. M. Parrish, L. A. Burns, D. G. A. Smith, A. C. Simmonett,
    A. E. DePrince III, E. G. Hohenstein, U. Bozkaya, A. Yu. Sokolov,
    R. Di Remigio, R. M. Richard, J. F. Gonthier, A. M. James,
    H. R. McAlexander, A. Kumar, M. Saitow, X. Wang, B. P. Pritchard,
    P. Verma, H. F. Schaefer III, K. Patkowski, R. A. King, E. F. Valeev,
    F. A. Evangelista, J. M. Turney, T. D. Crawford, and C. D. Sherrill,
    J. Chem. Theory Comput. 13(7) pp 3185--3197 (2017).
    (doi: 10.1021/acs.jctc.7b00174)


                         Additional Contributions by
    P. Kraus, H. Kruse, M. H. Lechner, M. C. Schieber, R. A. Shaw,
    A. Alenaizan, R. Galvelis, Z. L. Glick, S. Lehtola, and J. P. Misiewicz

    -----------------------------------------------------------------------


    Psi4 started on: Friday, 05 March 2021 03:38PM

    Process ID: 112272
    Host:       c5-12.compute.lan
    PSIDATADIR: /apps/gb/PSI4/1.3.2/share/psi4
    Memory:     500.0 MiB
    Threads:    12
    
  ==> Input File <==

--------------------------------------------------------------------------
memory 46 GB

basis jerome {
assign pot
assign S aug-cc-pV(T+d)Z

[pot]
spherical
****
 K  0
 S 23 1.00
    2.709796E+07     4.136110E-07
    3.592856E+06     3.860330E-06
    7.222638E+05     2.394640E-05
    1.833976E+05     1.157540E-04
    5.464812E+04     4.697010E-04
    1.830913E+04     1.673720E-03
    6.712501E+03     5.370450E-03
    2.643719E+03     1.572510E-02
    1.103835E+03     4.193360E-02
    4.836777E+02     9.987620E-02
    2.206245E+02     2.019680E-01
    1.041117E+02     3.146270E-01
    5.052749E+01     3.107540E-01
    2.485247E+01     1.421920E-01
    1.128102E+01     1.658490E-02
    5.510166E+00    -2.759760E-04
    2.706914E+00     5.158310E-04
    1.122807E+00    -2.268950E-04
    5.236385E-01     6.652980E-05
    2.355180E-01    -3.685150E-05
    4.157977E-02     1.925250E-05
    2.555456E-02    -2.108420E-05
    1.471495E-02     7.044600E-06
 S 23 1.00
    2.709796E+07    -1.188290E-07
    3.592856E+06    -1.108550E-06
    7.222638E+05    -6.881230E-06
    1.833976E+05    -3.324150E-05
    5.464812E+04    -1.350850E-04
    1.830913E+04    -4.814570E-04
    6.712501E+03    -1.552620E-03
    2.643719E+03    -4.578330E-03
    1.103835E+03    -1.247930E-02
    4.836777E+02    -3.094650E-02
    2.206245E+02    -6.855530E-02
    1.041117E+02    -1.268300E-01
    5.052749E+01    -1.745020E-01
    2.485247E+01    -9.089560E-02
    1.128102E+01     2.506960E-01
    5.510166E+00     5.589630E-01
    2.706914E+00     3.284370E-01
    1.122807E+00     3.392170E-02
    5.236385E-01    -2.100280E-03
    2.355180E-01     1.383960E-03
    4.157977E-02    -5.315630E-04
    2.555456E-02     5.770310E-04
    1.471495E-02    -1.931440E-04
 S 23 1.00
    2.709796E+07     3.917470E-08
    3.592856E+06     3.650640E-07
    7.222638E+05     2.269460E-06
    1.833976E+05     1.094290E-05
    5.464812E+04     4.457360E-05
    1.830913E+04     1.584480E-04
    6.712501E+03     5.128440E-04
    2.643719E+03     1.507690E-03
    1.103835E+03     4.136940E-03
    4.836777E+02     1.024690E-02
    2.206245E+02     2.306520E-02
    1.041117E+02     4.308900E-02
    5.052749E+01     6.238120E-02
    2.485247E+01     3.270420E-02
    1.128102E+01    -1.021980E-01
    5.510166E+00    -3.317970E-01
    2.706914E+00    -3.030100E-01
    1.122807E+00     3.098410E-01
    5.236385E-01     6.732700E-01
    2.355180E-01     2.812200E-01
    4.157977E-02     9.376240E-03
    2.555456E-02    -6.955720E-03
    1.471495E-02     2.069460E-03
 S 23 1.00
    2.709796E+07    -7.564440E-09
    3.592856E+06    -7.055390E-08
    7.222638E+05    -4.380820E-07
    1.833976E+05    -2.115540E-06
    5.464812E+04    -8.601300E-06
    1.830913E+04    -3.064440E-05
    6.712501E+03    -9.892550E-05
    2.643719E+03    -2.917760E-04
    1.103835E+03    -7.977860E-04
    4.836777E+02    -1.985820E-03
    2.206245E+02    -4.449740E-03
    1.041117E+02    -8.390260E-03
    5.052749E+01    -1.206000E-02
    2.485247E+01    -6.568410E-03
    1.128102E+01     2.061430E-02
    5.510166E+00     6.770060E-02
    2.706914E+00     6.639570E-02
    1.122807E+00    -8.237770E-02
    5.236385E-01    -1.727150E-01
    2.355180E-01    -2.310290E-01
    4.157977E-02     5.090040E-01
    2.555456E-02     3.472180E-01
    1.471495E-02     2.809620E-01
 S 1 1.00
    2.555456E-02     1.000000E+00
 S 1 1.00
    1.471495E-02     1.000000E+00
 S 1 1.00
    8.470000E-03     1.000000E+00
 P 16 1.00
    9.533309E+03     4.212010E-05
    1.852081E+03     5.068300E-04
    5.464251E+02     3.311700E-03
    1.966947E+02     1.536840E-02
    7.964112E+01     5.457060E-02
    3.488324E+01     1.473880E-01
    1.604479E+01     2.879240E-01
    7.575632E+00     3.750810E-01
    3.672548E+00     2.545160E-01
    1.771130E+00     6.059280E-02
    8.515199E-01     2.508370E-03
    4.016017E-01     6.688870E-04
    1.851933E-01    -1.486150E-04
    5.523390E-02     4.936010E-05
    2.431085E-02    -3.513850E-05
    1.080339E-02     1.171450E-05
 P 16 1.00
    9.533309E+03    -1.280760E-05
    1.852081E+03    -1.547870E-04
    5.464251E+02    -1.010940E-03
    1.966947E+02    -4.738330E-03
    7.964112E+01    -1.703260E-02
    3.488324E+01    -4.754130E-02
    1.604479E+01    -9.560810E-02
    7.575632E+00    -1.337000E-01
    3.672548E+00    -7.425060E-02
    1.771130E+00     1.646810E-01
    8.515199E-01     4.057630E-01
    4.016017E-01     4.113600E-01
    1.851933E-01     1.734240E-01
    5.523390E-02     1.253640E-02
    2.431085E-02    -3.267140E-03
    1.080339E-02     1.039680E-03
 P 16 1.00
    9.533309E+03     1.764010E-06
    1.852081E+03     2.124880E-05
    5.464251E+02     1.392500E-04
    1.966947E+02     6.509140E-04
    7.964112E+01     2.349940E-03
    3.488324E+01     6.547470E-03
    1.604479E+01     1.326270E-02
    7.575632E+00     1.848520E-02
    3.672548E+00     1.025530E-02
    1.771130E+00    -2.652150E-02
    8.515199E-01    -6.086460E-02
    4.016017E-01    -7.474220E-02
    1.851933E-01    -4.870880E-02
    5.523390E-02     2.245720E-01
    2.431085E-02     5.839280E-01
    1.080339E-02     2.980960E-01
 P 1 1.00
    5.523390E-02     1.000000E+00
 P 1 1.00
    1.080339E-02     1.000000E+00
 P 1 1.00
    4.800000E-03     1.000000E+00
 D 6 1.00
    5.670903E+00     8.285900E-03
    1.459042E+00     2.332530E-02
    5.431827E-01     4.878080E-02
    1.346875E-01     7.349020E-02
    5.516013E-02     2.387630E-01
    1.501876E-02     8.253200E-01
 D 1 1.00
    5.516013E-02     1.000000E+00
 D 1 1.00
    1.501876E-02     1.000000E+00
 D 1 1.00
    6.010000E-03     1.000000E+00
 F 1 1.00
    8.493750E-02     1.000000E+00
 F 1 1.00
    3.398000E-02     1.000000E+00
 ****
}

molecule  {
0 2
S   -1.195885734356    1.038665684628    0.000000000000
S   -1.195046023319   -1.038319129355    0.000000000000
K    1.961903710475   -0.000284369503    0.000000000000
}
set {
basis jerome
reference uhf
g_convergence gau_verytight
e_convergence 10
scf_type pk
freeze_core true
geom_maxiter 100
}

set ccenergy {
e_convergence 10
r_convergence 10
}

e = energy('ccsd(t)')

print_out('Stephenergy {}'.format(e))

--------------------------------------------------------------------------

  Memory set to  42.841 GiB by Python driver.

*** tstart() called on c5-12.compute.lan
*** at Fri Mar  5 15:38:38 2021

   => Loading Basis Set <=

    Name: JEROME
    Role: ORBITAL
    Keyword: BASIS
    atoms 1-2 entry S          line   928 file /apps/gb/PSI4/1.3.2/share/psi4/basis/aug-cc-pv_tpd_z.gbs 
    atoms 3   entry K          line     5 inputblock pot 


         ---------------------------------------------------------
                                   SCF
               by Justin Turney, Rob Parrish, Andy Simmonett
                          and Daniel G. A. Smith
                              UHF Reference
                       12 Threads,  43869 MiB Core
         ---------------------------------------------------------

  ==> Geometry <==

    Molecular point group: cs
    Full point group: Cs

    Geometry (in Angstrom), charge = 0, multiplicity = 2:

       Center              X                  Y                   Z               Mass       
    ------------   -----------------  -----------------  -----------------  -----------------
         S           -1.195885734356     1.038665684628     0.000000000000    31.972071174400
         S           -1.195046023319    -1.038319129355     0.000000000000    31.972071174400
         K            1.961903710475    -0.000284369503     0.000000000000    38.963706486400

  Running in cs symmetry.

  Rotational constants: A =      0.24445  B =      0.06984  C =      0.05432 [cm^-1]
  Rotational constants: A =   7328.41228  B =   2093.88953  C =   1628.57081 [MHz]
  Nuclear repulsion =  162.023680843679358

  Charge       = 0
  Multiplicity = 2
  Electrons    = 51
  Nalpha       = 26
  Nbeta        = 25

  ==> Algorithm <==

  SCF Algorithm Type is PK.
  DIIS enabled.
  MOM disabled.
  Fractional occupation disabled.
  Guess Type is SAD.
  Energy threshold   = 1.00e-10
  Density threshold  = 1.00e-08
  Integral threshold = 0.00e+00

  ==> Primary Basis <==

  Basis Set: JEROME
    Blend: AUG-CC-PV(T+D)Z + POT
    Number of shells: 53
    Number of basis function: 169
    Number of Cartesian functions: 199
    Spherical Harmonics?: true
    Max angular momentum: 3

  ==> Pre-Iterations <==

   -------------------------------------------------------
    Irrep   Nso     Nmo     Nalpha   Nbeta   Ndocc  Nsocc
   -------------------------------------------------------
     A'       111     111       0       0       0       0
     A"        58      58       0       0       0       0
   -------------------------------------------------------
    Total     169     169      26      25      25       1
   -------------------------------------------------------

  ==> Integral Setup <==

  Using in-core PK algorithm.
   Calculation information:
      Number of atoms:                   3
      Number of AO shells:              53
      Number of primitives:            287
      Number of atomic orbitals:       199
      Number of basis functions:       169

      Integral cutoff                 1.00e-12
      Number of threads:                12

  Performing in-core PK
  Using 206367590 doubles for integral storage.
  We computed 1579719 shell quartets total.
  Whereas there are 1024596 unique shell quartets.
    54.18 percent of shell quartets recomputed by reordering.

  ==> DiskJK: Disk-Based J/K Matrices <==

    J tasked:                  Yes
    K tasked:                  Yes
    wK tasked:                  No
    Memory [MiB]:            32901
    Schwarz Cutoff:          1E-12

    OpenMP threads:             12

  Minimum eigenvalue in the overlap matrix is 2.3837182768E-04.
  Using Symmetric Orthogonalization.

  SCF Guess: Superposition of Atomic Densities via on-the-fly atomic UHF.

  ==> Iterations <==

                        Total Energy        Delta E     RMS |[F,P]|

   @UHF iter SAD: -1393.47857048595347   -1.39348e+03   0.00000e+00 
   @UHF iter   1: -1394.26887537306402   -7.90305e-01   1.99474e-03 DIIS
   @UHF iter   2: -1394.30796961686929   -3.90942e-02   7.13813e-04 DIIS
   @UHF iter   3: -1394.31224787048541   -4.27825e-03   2.20698e-04 DIIS
   @UHF iter   4: -1394.31321651612689   -9.68646e-04   9.43551e-05 DIIS
   @UHF iter   5: -1394.31342013263247   -2.03617e-04   2.45945e-05 DIIS
   @UHF iter   6: -1394.31343873019250   -1.85976e-05   7.25778e-06 DIIS
   @UHF iter   7: -1394.31344064460563   -1.91441e-06   2.84326e-06 DIIS
   @UHF iter   8: -1394.31344096999351   -3.25388e-07   1.47543e-06 DIIS
   @UHF iter   9: -1394.31344108489338   -1.14900e-07   8.49384e-07 DIIS
   @UHF iter  10: -1394.31344113595742   -5.10640e-08   5.02642e-07 DIIS
   @UHF iter  11: -1394.31344115282309   -1.68657e-08   3.30610e-07 DIIS
   @UHF iter  12: -1394.31344116313994   -1.03169e-08   1.79336e-07 DIIS
   @UHF iter  13: -1394.31344116676428   -3.62434e-09   6.06024e-08 DIIS
   @UHF iter  14: -1394.31344116708397   -3.19687e-10   3.24531e-08 DIIS
   @UHF iter  15: -1394.31344116716036   -7.63976e-11   2.58559e-08 DIIS
   @UHF iter  16: -1394.31344116723790   -7.75344e-11   2.20379e-08 DIIS
   @UHF iter  17: -1394.31344116731680   -7.88987e-11   1.82651e-08 DIIS
   @UHF iter  18: -1394.31344116742639   -1.09594e-10   1.07662e-08 DIIS
   @UHF iter  19: -1394.31344116746959   -4.32010e-11   3.84980e-09 DIIS
  Energy and wave function converged.


  ==> Post-Iterations <==

   @Spin Contamination Metric:   3.677150902E-02
   @S^2 Expected:                7.500000000E-01
   @S^2 Observed:                7.867715090E-01
   @S   Expected:                5.000000000E-01
   @S   Observed:                5.000000000E-01

    Orbital Energies [Eh]
    ---------------------

    Alpha Occupied:                                                       

       1Ap  -133.559657     2Ap   -91.906670     3Ap   -91.906606  
       4Ap   -14.515912     1App  -11.545930     5Ap   -11.545847  
       6Ap   -11.545773     7Ap    -8.904163     8Ap    -8.903982  
       2App   -6.593170     3App   -6.593093     9Ap    -6.583039  
      10Ap    -6.582668    11Ap    -6.581499    12Ap    -6.581437  
      13Ap    -1.773877     4App   -0.982972    14Ap    -0.981756  
      15Ap    -0.981400    16Ap    -0.944561    17Ap    -0.757571  
       5App   -0.414008    18Ap    -0.402806    19Ap    -0.386152  
       6App   -0.296044    20Ap    -0.260623  

    Alpha Virtual:                                                        

      21Ap    -0.019902     7App    0.002170    22Ap     0.002629  
      23Ap     0.005692    24Ap     0.016455     8App    0.017140  
      25Ap     0.017264     9App    0.019892    26Ap     0.020820  
      27Ap     0.022363    10App    0.022865    28Ap     0.028727  
      29Ap     0.032853    30Ap     0.051008    11App    0.051137  
      31Ap     0.055474    12App    0.058848    32Ap     0.061863  
      13App    0.073581    33Ap     0.074480    34Ap     0.088213  
      35Ap     0.104492    36Ap     0.108400    37Ap     0.125499  
      14App    0.125669    38Ap     0.128645    39Ap     0.128776  
      15App    0.129773    16App    0.133147    40Ap     0.133831  
      41Ap     0.150436    17App    0.152715    42Ap     0.153541  
      18App    0.167035    43Ap     0.170551    44Ap     0.174852  
      19App    0.178458    20App    0.186389    45Ap     0.206761  
      46Ap     0.207617    47Ap     0.221457    21App    0.233519  
      48Ap     0.244607    49Ap     0.267877    50Ap     0.310680  
      51Ap     0.310881    22App    0.337539    52Ap     0.350658  
      53Ap     0.362729    23App    0.375750    24App    0.381777  
      54Ap     0.383538    25App    0.386390    55Ap     0.391616  
      56Ap     0.391679    26App    0.394164    57Ap     0.406255  
      27App    0.407361    58Ap     0.428269    59Ap     0.431049  
      60Ap     0.439837    28App    0.452915    29App    0.456752  
      61Ap     0.463000    30App    0.466730    62Ap     0.488092  
      63Ap     0.514859    64Ap     0.537796    31App    0.666893  
      32App    0.703412    65Ap     0.709178    33App    0.711252  
      66Ap     0.730751    67Ap     0.747012    68Ap     0.785650  
      34App    0.801249    69Ap     0.814102    70Ap     0.815385  
      35App    0.850867    71Ap     0.856562    72Ap     0.870946  
      36App    0.892207    73Ap     0.909454    37App    0.914806  
      74Ap     0.947792    75Ap     0.948239    76Ap     0.962233  
      38App    1.012347    77Ap     1.018996    39App    1.048286  
      78Ap     1.052799    79Ap     1.078944    40App    1.161793  
      80Ap     1.197077    81Ap     1.197724    41App    1.202540  
      82Ap     1.218622    42App    1.363517    83Ap     1.395153  
      84Ap     1.462039    85Ap     1.677235    43App    2.031410  
      86Ap     2.036065    44App    2.064607    87Ap     2.067252  
      45App    2.079002    88Ap     2.096734    89Ap     2.132284  
      46App    2.214710    90Ap     2.284197    47App    2.287197  
      91Ap     2.291863    92Ap     2.312101    93Ap     2.372247  
      48App    2.378927    94Ap     2.413096    49App    2.421760  
      95Ap     2.450554    96Ap     2.473470    50App    2.485717  
      51App    2.504866    52App    2.561260    97Ap     2.581516  
      53App    2.584917    98Ap     2.668793    99Ap     2.685612  
     100Ap     2.707503   101Ap     2.726379    54App    2.867638  
     102Ap     2.898826   103Ap     3.989671   104Ap     4.955362  
     105Ap     5.750112    55App    7.416987   106Ap     7.419765  
     107Ap     7.436052    56App    7.436325    57App    7.438721  
     108Ap     7.461739    58App    7.509636   109Ap     7.532330  
     110Ap     7.597095   111Ap     7.607874  

    Beta Occupied:                                                        

       1Ap  -133.559680     2Ap   -91.901077     3Ap   -91.901021  
       4Ap   -14.515943     1App  -11.545964     5Ap   -11.545881  
       6Ap   -11.545804     7Ap    -8.898085     8Ap    -8.897871  
       9Ap    -6.580338    10Ap    -6.579954    11Ap    -6.577955  
      12Ap    -6.577898     2App   -6.568682     3App   -6.568628  
      13Ap    -1.774039     4App   -0.983132    14Ap    -0.981903  
      15Ap    -0.980426    16Ap    -0.906276    17Ap    -0.686959  
      18Ap    -0.386890    19Ap    -0.377620     5App   -0.289265  
      20Ap    -0.247624  

    Beta Virtual:                                                         

      21Ap    -0.019913     6App    0.002201    22Ap     0.002642  
      23Ap     0.005680    24Ap     0.016450     7App    0.016969  
      25Ap     0.017264     8App    0.019934    26Ap     0.020845  
      27Ap     0.022412     9App    0.022958    28Ap     0.028728  
      29Ap     0.032763    10App    0.046989    30Ap     0.050976  
      31Ap     0.055744    11App    0.059302    32Ap     0.061830  
      12App    0.065045    13App    0.073765    33Ap     0.074674  
      34Ap     0.087875    35Ap     0.104276    36Ap     0.110107  
      37Ap     0.125700    14App    0.125785    38Ap     0.128607  
      39Ap     0.129627    15App    0.129696    40Ap     0.133876  
      16App    0.134979    41Ap     0.150295    42Ap     0.153792  
      17App    0.164153    18App    0.171847    43Ap     0.172110  
      44Ap     0.174532    19App    0.183764    20App    0.187104  
      45Ap     0.207573    46Ap     0.212238    47Ap     0.224266  
      21App    0.233738    48Ap     0.245221    49Ap     0.267048  
      50Ap     0.313698    51Ap     0.317303    52Ap     0.351904  
      22App    0.356529    53Ap     0.366899    54Ap     0.383848  
      23App    0.384522    24App    0.388632    25App    0.389646  
      55Ap     0.391520    56Ap     0.395680    26App    0.396017  
      27App    0.407404    57Ap     0.408611    58Ap     0.430927  
      59Ap     0.433697    60Ap     0.442856    28App    0.462598  
      61Ap     0.468782    29App    0.470028    30App    0.475459  
      62Ap     0.488974    63Ap     0.518466    64Ap     0.538523  
      31App    0.686380    65Ap     0.716930    66Ap     0.736530  
      32App    0.739682    33App    0.741863    67Ap     0.749459  
      68Ap     0.798419    69Ap     0.814377    34App    0.818292  
      70Ap     0.831394    71Ap     0.868871    35App    0.885483  
      72Ap     0.895485    73Ap     0.915053    36App    0.921886  
      37App    0.925276    74Ap     0.951502    75Ap     0.960344  
      76Ap     0.966079    38App    1.024768    77Ap     1.030035  
      78Ap     1.054726    39App    1.058861    79Ap     1.085286  
      40App    1.173969    80Ap     1.196782    81Ap     1.207193  
      41App    1.209107    82Ap     1.220714    42App    1.379684  
      83Ap     1.397185    84Ap     1.474937    85Ap     1.692661  
      43App    2.046632    86Ap     2.050784    44App    2.079652  
      87Ap     2.082275    45App    2.094929    88Ap     2.098905  
      89Ap     2.134484    46App    2.236766    90Ap     2.289041  
      91Ap     2.294014    47App    2.303975    92Ap     2.314889  
      93Ap     2.385282    48App    2.391642    94Ap     2.425147  
      49App    2.454132    95Ap     2.461897    96Ap     2.495826  
      50App    2.508723    51App    2.531919    52App    2.585813  
      97Ap     2.597710    53App    2.601188    98Ap     2.674317  
      99Ap     2.690114   100Ap     2.711984   101Ap     2.732189  
      54App    2.888738   102Ap     2.901537   103Ap     3.993173  
     104Ap     4.966530   105Ap     5.760452    55App    7.423184  
     106Ap     7.426088   107Ap     7.442583    56App    7.442845  
      57App    7.444778   108Ap     7.462817    58App    7.515595  
     109Ap     7.533210   110Ap     7.599034   111Ap     7.609758  

    Final Occupation by Irrep:
             Ap   App 
    DOCC [    20,    5 ]
    SOCC [     0,    1 ]

  @UHF Final Energy: -1394.31344116746959

   => Energetics <=

    Nuclear Repulsion Energy =            162.0236808436793581
    One-Electron Energy =               -2249.2641129363546497
    Two-Electron Energy =                 692.9269909252057005
    Total Energy =                      -1394.3134411674695912

  UHF NO Occupations:
  HONO-2 :   20 Ap 1.9974860
  HONO-1 :    5App 1.9869046
  HONO-0 :    6App 1.0000000
  LUNO+0 :    7App 0.0130954
  LUNO+1 :   21 Ap 0.0025140
  LUNO+2 :   22 Ap 0.0022668
  LUNO+3 :   23 Ap 0.0003117


Computation Completed


Properties will be evaluated at   0.000000,   0.000000,   0.000000 [a0]

Properties computed using the SCF density matrix

  Nuclear Dipole Moment: [e a0]
     X:    -1.8495      Y:     0.0003      Z:     0.0000

  Electronic Dipole Moment: [e a0]
     X:     6.6356      Y:    -0.0002      Z:     0.0000

  Dipole Moment: [e a0]
     X:     4.7861      Y:     0.0001      Z:     0.0000     Total:     4.7861

  Dipole Moment: [D]
     X:    12.1650      Y:     0.0002      Z:     0.0000     Total:    12.1650


*** tstop() called on c5-12.compute.lan at Fri Mar  5 15:39:34 2021
Module time:
	user time   =     222.67 seconds =       3.71 minutes
	system time =       1.83 seconds =       0.03 minutes
	total time  =         56 seconds =       0.93 minutes
Total time:
	user time   =     222.67 seconds =       3.71 minutes
	system time =       1.83 seconds =       0.03 minutes
	total time  =         56 seconds =       0.93 minutes
 MINTS: Wrapper to libmints.
   by Justin Turney

   Calculation information:
      Number of threads:                12
      Number of atoms:                   3
      Number of AO shells:              53
      Number of SO shells:              53
      Number of primitives:            287
      Number of atomic orbitals:       199
      Number of basis functions:       169

      Number of irreps:                  2
      Integral cutoff                 0.00e+00
      Number of functions per irrep: [ 111   58 ]

 OEINTS: Overlap, kinetic, potential, dipole, and quadrupole integrals
         stored in file 35.

      Computing two-electron integrals...done
      Computed 51035025 non-zero two-electron integrals.
        Stored in file 33.


*** tstart() called on c5-12.compute.lan
*** at Fri Mar  5 15:41:00 2021


	Wfn Parameters:
	--------------------
	Wavefunction         = CCSD_T
	Number of irreps     = 2
	Number of MOs        = 169
	Number of active MOs = 150
	AO-Basis             = NONE
	Semicanonical        = false
	Reference            = UHF
	Print Level          = 1

	IRREP	# MOs	# FZDC	# DOCC	# SOCC	# VIRT	# FZVR
	-----	-----	------	------	------	------	------
	 Ap	   111	    15	    5	    0	    91	    0
	 App	   58	    4	    1	    1	    52	    0
	Transforming integrals...
	IWL integrals will be deleted.
	(OO|OO)...
	Presorting SO-basis two-electron integrals.
	Sorting File: SO Ints (nn|nn) nbuckets = 1
	Transforming the one-electron integrals and constructing Fock matrices
	Starting AA/AB first half-transformation.
	Sorting AA/AB half-transformed integrals.
	Starting BB first half-transformation.
	Sorting BB half-transformed integrals.
	First half integral transformation complete.
	Starting AA second half-transformation.
	Starting AB second half-transformation.
	Starting BB second half-transformation.
	Two-electron integral transformation complete.
	(OO|OV)...
	Starting AA second half-transformation.
	Starting AB second half-transformation.
	Starting BB second half-transformation.
	Two-electron integral transformation complete.
	(OO|VV)...
	Starting AA second half-transformation.
	Starting AB second half-transformation.
	Starting BB second half-transformation.
	Two-electron integral transformation complete.
	(OV|OO)...
	Starting AA/AB first half-transformation.
	Sorting AA/AB half-transformed integrals.
	Starting BB first half-transformation.
	Sorting BB half-transformed integrals.
	First half integral transformation complete.
	Starting AA second half-transformation.
	Starting AB second half-transformation.
	Starting BB second half-transformation.
	Two-electron integral transformation complete.
	(OV|OV)...
	Starting AA second half-transformation.
	Starting AB second half-transformation.
	Starting BB second half-transformation.
	Two-electron integral transformation complete.
	(OV|VV)...
	Starting AA second half-transformation.
	Starting AB second half-transformation.
	Starting BB second half-transformation.
	Two-electron integral transformation complete.
	(VV|OO)...
	Starting AA/AB first half-transformation.
	Sorting AA/AB half-transformed integrals.
	Starting BB first half-transformation.
	Sorting BB half-transformed integrals.
	First half integral transformation complete.
	Starting AA second half-transformation.
	Starting AB second half-transformation.
	Starting BB second half-transformation.
	Two-electron integral transformation complete.
	(VV|OV)...
	Starting AA second half-transformation.
	Starting AB second half-transformation.
	Starting BB second half-transformation.
	Two-electron integral transformation complete.
	(VV|VV)...
	Starting AA second half-transformation.
	Starting AB second half-transformation.
	Starting BB second half-transformation.
	Two-electron integral transformation complete.
	Frozen core energy     =  -1525.22125988161724

	Size of irrep 0 of <AB|CD> integrals:     29.387 (MW) /    235.098 (MB)
	Size of irrep 1 of <AB|CD> integrals:     22.392 (MW) /    179.135 (MB)
	Total:                                    51.779 (MW) /    414.233 (MB)

	Size of irrep 0 of <ab|cd> integrals:     29.954 (MW) /    239.630 (MB)
	Size of irrep 1 of <ab|cd> integrals:     23.261 (MW) /    186.091 (MB)
	Total:                                    53.215 (MW) /    425.720 (MB)

	Size of irrep 0 of <Ab|Cd> integrals:    121.815 (MW) /    974.523 (MB)
	Size of irrep 1 of <Ab|Cd> integrals:     91.298 (MW) /    730.384 (MB)
	Total:                                   213.113 (MW) /   1704.907 (MB)

	Size of irrep 0 of <IA|BC> integrals:      6.141 (MW) /     49.125 (MB)
	Size of irrep 1 of <IA|BC> integrals:      4.183 (MW) /     33.465 (MB)
	Total:                                    10.324 (MW) /     82.590 (MB)

	Size of irrep 0 of <ia|bc> integrals:      5.634 (MW) /     45.070 (MB)
	Size of irrep 1 of <ia|bc> integrals:      3.434 (MW) /     27.472 (MB)
	Total:                                     9.068 (MW) /     72.542 (MB)

	Size of irrep 0 of <Ia|Bc> integrals:      6.192 (MW) /     49.534 (MB)
	Size of irrep 1 of <Ia|Bc> integrals:      4.271 (MW) /     34.169 (MB)
	Total:                                    10.463 (MW) /     83.703 (MB)

	Size of irrep 0 of <iA|bC> integrals:      5.596 (MW) /     44.766 (MB)
	Size of irrep 1 of <iA|bC> integrals:      3.354 (MW) /     26.830 (MB)
	Total:                                     8.950 (MW) /     71.597 (MB)

	Size of irrep 0 of tIjAb amplitudes:       0.298 (MW) /      2.384 (MB)
	Size of irrep 1 of tIjAb amplitudes:       0.143 (MW) /      1.147 (MB)
	Total:                                     0.441 (MW) /      3.531 (MB)

	Nuclear Rep. energy          =    162.02368084367936
	SCF energy                   =  -1394.31344116746959
	One-electron energy          =    -55.87532568165742
	Two-electron (AA) energy     =      6.08223474597626
	Two-electron (BB) energy     =      4.34724759486151
	Two-electron (AB) energy     =     14.32998121125966
	Two-electron energy          =     24.75946355209742
	Reference energy             =  -1394.31344116749779

*** tstop() called on c5-12.compute.lan at Fri Mar  5 15:43:08 2021
Module time:
	user time   =     211.48 seconds =       3.52 minutes
	system time =      31.63 seconds =       0.53 minutes
	total time  =        128 seconds =       2.13 minutes
Total time:
	user time   =     522.83 seconds =       8.71 minutes
	system time =      34.69 seconds =       0.58 minutes
	total time  =        270 seconds =       4.50 minutes
            **************************
            *                        *
            *        CCENERGY        *
            *                        *
            **************************

    Nuclear Rep. energy (wfn)     =  162.023680843679358
    SCF energy          (wfn)     = -1394.313441167469591
    Reference energy    (file100) = -1394.313441167497786

    Input parameters:
    -----------------
    Wave function   =     CCSD_T
    Reference wfn   =     UHF
    Brueckner       =     No
    Memory (Mbytes) =     46000.0
    Maxiter         =     50
    R_Convergence   =     1.0e-10
    E_Convergence   =     1.0e-10
    Restart         =     Yes
    DIIS            =     Yes
    AO Basis        =     NONE
    ABCD            =     NEW
    Cache Level     =     2
    Cache Type      =     LRU
    Print Level     =     1
    Num. of threads =     12
    # Amps to Print =     10
    Print MP2 Amps? =     No
    Analyze T2 Amps =     No
    Print Pair Ener =     No
    Local CC        =     No
    SCS-MP2         =     False
    SCSN-MP2        =     False
    SCS-CCSD        =     False

MP2 correlation energy -0.3450666855343354
                Solving CC Amplitude Equations
                ------------------------------
  Iter             Energy              RMS        T1Diag      D1Diag    New D1Diag    D2Diag
  ----     ---------------------    ---------   ----------  ----------  ----------   --------
     0        -0.345066685534335    0.000e+00    0.000000    0.000000    0.000000    0.000000
     1        -0.358634837016602    8.246e-02    0.015919    0.000000    0.000000    0.000000
     2        -0.369296296134408    2.599e-02    0.018543    0.000000    0.000000    0.000000
     3        -0.371483613182615    1.235e-02    0.022080    0.000000    0.000000    0.000000
     4        -0.371368168902459    3.434e-03    0.023158    0.000000    0.000000    0.000000
     5        -0.371333290738482    1.414e-03    0.023439    0.000000    0.000000    0.000000
     6        -0.371326911216225    6.115e-04    0.023526    0.000000    0.000000    0.000000
     7        -0.371323651256602    3.089e-04    0.023554    0.000000    0.000000    0.000000
     8        -0.371324785022382    1.661e-04    0.023559    0.000000    0.000000    0.000000
     9        -0.371328440213922    9.472e-05    0.023560    0.000000    0.000000    0.000000
    10        -0.371327016918121    5.126e-05    0.023562    0.000000    0.000000    0.000000
    11        -0.371326840856041    2.256e-05    0.023561    0.000000    0.000000    0.000000
    12        -0.371326466305425    1.096e-05    0.023562    0.000000    0.000000    0.000000
    13        -0.371326284973266    5.460e-06    0.023562    0.000000    0.000000    0.000000
    14        -0.371326280354398    2.989e-06    0.023562    0.000000    0.000000    0.000000
    15        -0.371326284634276    1.870e-06    0.023561    0.000000    0.000000    0.000000
    16        -0.371326284624671    1.050e-06    0.023561    0.000000    0.000000    0.000000
    17        -0.371326288949943    5.862e-07    0.023561    0.000000    0.000000    0.000000
    18        -0.371326289312463    2.808e-07    0.023561    0.000000    0.000000    0.000000
    19        -0.371326289126579    1.351e-07    0.023561    0.000000    0.000000    0.000000
    20        -0.371326289517008    7.465e-08    0.023561    0.000000    0.000000    0.000000
    21        -0.371326289424388    4.301e-08    0.023561    0.000000    0.000000    0.000000
    22        -0.371326289379001    2.400e-08    0.023561    0.000000    0.000000    0.000000
    23        -0.371326289334596    1.296e-08    0.023561    0.000000    0.000000    0.000000
    24        -0.371326289291495    7.776e-09    0.023561    0.000000    0.000000    0.000000
    25        -0.371326289304415    4.499e-09    0.023561    0.000000    0.000000    0.000000
    26        -0.371326289323882    2.651e-09    0.023561    0.000000    0.000000    0.000000
    27        -0.371326289325289    1.510e-09    0.023561    0.000000    0.000000    0.000000
    28        -0.371326289324654    9.471e-10    0.023561    0.000000    0.000000    0.000000
    29        -0.371326289323133    5.723e-10    0.023561    0.000000    0.000000    0.000000
    30        -0.371326289320772    2.843e-10    0.023561    0.000000    0.000000    0.000000
    31        -0.371326289320497    1.510e-10    0.023561    0.000000    0.000000    0.000000
    32        -0.371326289321172    7.972e-11    0.023561    0.000000    0.000000    0.000000

    Iterations converged.


    Largest TIA Amplitudes:
              5 106        -0.0250783400
              5 116         0.0132691259
              3  31         0.0126039809
              2  48         0.0125025986
              5 107        -0.0112427643
              6 101         0.0111586526
              5 102        -0.0099452832
              2  36         0.0094608680
              2  50        -0.0092438195
              2  28         0.0077851273

    Largest Tia Amplitudes:
              5 117        -0.0246282223
              5 107         0.0211974515
              5 103         0.0188206453
              5 109         0.0147923124
              5 116        -0.0140043253
              3  31         0.0134507539
              2  48         0.0112234832
              1  26        -0.0109161780
              5 108         0.0104008875
              2  29        -0.0101704064

    Largest TIJAB Amplitudes:
      6   2 106  24         0.0150127505
      4   2  31  24         0.0134093831
      6   2 116  24        -0.0125003771
      6   2 106  29        -0.0109589667
      5   3 107  30         0.0102043261
      4   2  46  24        -0.0096706141
      6   2 116  29         0.0094522048
      5   2 116  44        -0.0093787622
      6   4 119  49         0.0092189550
      6   4 106  31        -0.0090017457

    Largest Tijab Amplitudes:
      5   2  97  25        -0.0278095183
      5   2  97  26        -0.0227706784
      5   2  97  30         0.0197359829
      5   4  97  31         0.0168278397
      5   2  97  22         0.0156371501
      5   2  95  25        -0.0154233314
      5   2  97  15         0.0134800675
      4   2  31  25         0.0128046655
      5   2  95  26        -0.0126354587
      5   4  97  36         0.0114689355

    Largest TIjAb Amplitudes:
      2   5  24  97        -0.0363929618
      2   2  24  25        -0.0300928514
      6   5 106  97         0.0272897829
      2   2  24  26        -0.0238489462
      2   2  24  30         0.0209284231
      2   5  22  97        -0.0206703045
      6   5 116  97        -0.0204719494
      2   5  24  95        -0.0201399420
      2   5  15  97         0.0173552442
      2   5  29  97         0.0170685837

    SCF energy       (wfn)                    = -1394.313441167469591
    Reference energy (file100)                = -1394.313441167497786

    Opposite-spin MP2 correlation energy      =   -0.257378193593025
    Same-spin MP2 correlation energy          =   -0.087688491941310
    MP2 correlation energy                    =   -0.345066685534335
      * MP2 total energy                      = -1394.658507853032233

    Opposite-spin CCSD correlation energy     =   -0.289667517244329
    Same-spin CCSD correlation energy         =   -0.081658772076843
    CCSD correlation energy                   =   -0.371326289321172
      * CCSD total energy                     = -1394.684767456818918

            **************************
            *                        *
            *        CCTRIPLES       *
            *                        *
            **************************


    Wave function   =    CCSD_T
    Reference wfn   =      UHF

    Nuclear Rep. energy (wfn)                =  162.023680843679358
    SCF energy          (wfn)                = -1394.313441167469591
    Reference energy    (file100)            = -1394.313441167497786
    CCSD energy         (file100)            =   -0.371326289321172
    Total CCSD energy   (file100)            = -1394.684767456818918

    Number of ijk index combinations:
    Spin Case AAA:                                  35
    Spin Case BBB:                                  20
    Spin Case AAB:                                 126
    Spin Case ABB:                                 105
    AAA (T) energy                             =   -0.000563577028424
    BBB (T) energy                             =   -0.000656586149473
    AAB (T) energy                             =   -0.010575389125545
    ABB (T) energy                             =   -0.010299749132574
    (T) energy                                   =   -0.022095301436016
      * CCSD(T) total energy                     = -1394.706862758255056

Stephenergy -1394.706862758255
    Psi4 stopped on: Friday, 05 March 2021 03:46PM
    Psi4 wall time for execution: 0:07:49.78

*** Psi4 exiting successfully. Buy a developer a beer!
