
    -----------------------------------------------------------------------
          Psi4: An Open-Source Ab Initio Electronic Structure Package
                               Psi4 1.4a2.dev191 

                         Git: Rev {master} 0ab5346 


    R. M. Parrish, L. A. Burns, D. G. A. Smith, A. C. Simmonett,
    A. E. DePrince III, E. G. Hohenstein, U. Bozkaya, A. Yu. Sokolov,
    R. Di Remigio, R. M. Richard, J. F. Gonthier, A. M. James,
    H. R. McAlexander, A. Kumar, M. Saitow, X. Wang, B. P. Pritchard,
    P. Verma, H. F. Schaefer III, K. Patkowski, R. A. King, E. F. Valeev,
    F. A. Evangelista, J. M. Turney, T. D. Crawford, and C. D. Sherrill,
    J. Chem. Theory Comput. 13(7) pp 3185--3197 (2017).
    (doi: 10.1021/acs.jctc.7b00174)


                         Additional Contributions by
    P. Kraus, H. Kruse, M. H. Lechner, M. C. Schieber, R. A. Shaw,
    A. Alenaizan, R. Galvelis, Z. L. Glick, S. Lehtola, and J. P. Misiewicz

    -----------------------------------------------------------------------


    Psi4 started on: Thursday, 11 February 2021 02:01PM

    Process ID: 78926
    Host:       d4-10.compute.lan
    PSIDATADIR: /apps/gb/PSI4/1.4.0/share/psi4
    Memory:     500.0 MiB
    Threads:    1
    
  ==> Input File <==

--------------------------------------------------------------------------
memory 16 GB

molecule  {
-2 3
S
S 1 r1
S 1 r2 2 a1
S 2 r3 1 a2 3 d1
r1 = 2.051
r2 = 2.024
r3 = 2.024
a1 = 105.1
a2 = 105.1
d1 = 180.0
}

set {
reference uks
basis aug-cc-pvtz
g_convergence gau_verytight
dft_spherical_points 590
dft_radial_points 99
}

optimize('wb97x-d')
frequencies('wb97x-d')

--------------------------------------------------------------------------

  Memory set to  14.901 GiB by Python driver.
gradient() will perform analytic gradient computation.

*** tstart() called on d4-10.compute.lan
*** at Thu Feb 11 14:01:50 2021

   => Loading Basis Set <=

    Name: AUG-CC-PVTZ
    Role: ORBITAL
    Keyword: BASIS
    atoms 1-4 entry S          line   906 file /apps/gb/PSI4/1.4.0/share/psi4/basis/aug-cc-pvtz.gbs 

   => WB97X-D: Empirical Dispersion <=

    Chai and Head-Gordon Dispersion Correction
    Chai, J.-D.; Head-Gordon, M. (2010), J. Chem. Phys., 132: 6615-6620

        s6 =       1.000000


         ---------------------------------------------------------
                                   SCF
               by Justin Turney, Rob Parrish, Andy Simmonett
                          and Daniel G. A. Smith
                              UKS Reference
                        1 Threads,  15258 MiB Core
         ---------------------------------------------------------

  ==> Geometry <==

    Molecular point group: c2h
    Full point group: C2h

    Geometry (in Angstrom), charge = -2, multiplicity = 3:

       Center              X                  Y                   Z               Mass       
    ------------   -----------------  -----------------  -----------------  -----------------
         S            0.000000000000     1.025500000000     0.000000000000    31.972071174400
         S            0.000000000000    -1.025500000000     0.000000000000    31.972071174400
         S           -1.954116604900     1.552761125493     0.000000000000    31.972071174400
         S            1.954116604900    -1.552761125493     0.000000000000    31.972071174400

  Running in c2h symmetry.

  Rotational constants: A =      0.43854  B =      0.03946  C =      0.03621 [cm^-1]
  Rotational constants: A =  13147.07888  B =   1183.12687  C =   1085.44584 [MHz]
  Nuclear repulsion =  310.800725288192780

  Charge       = -2
  Multiplicity = 3
  Electrons    = 66
  Nalpha       = 34
  Nbeta        = 32

  ==> Algorithm <==

  SCF Algorithm Type is DF.
  DIIS enabled.
  MOM disabled.
  Fractional occupation disabled.
  Guess Type is SAD.
  Energy threshold   = 1.00e-08
  Density threshold  = 1.00e-08
  Integral threshold = 0.00e+00

  ==> Primary Basis <==

  Basis Set: AUG-CC-PVTZ
    Blend: AUG-CC-PVTZ
    Number of shells: 64
    Number of basis function: 200
    Number of Cartesian functions: 236
    Spherical Harmonics?: true
    Max angular momentum: 3

  ==> DFT Potential <==

   => Composite Functional: WB97X-D <= 

    wB97X-D Hyb-GGA Exchange-Correlation Functional

    J.-D. Chai and M. Head-Gordon, Phys. Chem. Chem. Phys. 10, 6615 (2008)

    Deriv               =              1
    GGA                 =           TRUE
    Meta                =          FALSE

    Exchange Hybrid     =           TRUE
    MP2 Hybrid          =          FALSE

   => Exchange-Correlation Functionals <=

    1.0000   wB97D range-separated functional

   => Exact (HF) Exchange <=

    0.7780            HF,LR [omega = 0.2000]
    0.2220               HF 

   => Molecular Quadrature <=

    Radial Scheme          =       TREUTLER
    Pruning Scheme         =           NONE
    Nuclear Scheme         =       TREUTLER

    BS radius alpha        =              1
    Pruning alpha          =              1
    Radial Points          =             99
    Spherical Points       =            590
    Total Points           =         225778
    Total Blocks           =           1818
    Max Points             =            256
    Max Functions          =            200
    Weights Tolerance      =       1.00E-15

   => Loading Basis Set <=

    Name: (AUG-CC-PVTZ AUX)
    Role: JKFIT
    Keyword: DF_BASIS_SCF
    atoms 1-4 entry S          line   730 file /apps/gb/PSI4/1.4.0/share/psi4/basis/aug-cc-pvtz-jkfit.gbs 

  ==> Pre-Iterations <==

   -------------------------------------------------------
    Irrep   Nso     Nmo     Nalpha   Nbeta   Ndocc  Nsocc
   -------------------------------------------------------
     Ag        66      66       0       0       0       0
     Bg        34      34       0       0       0       0
     Au        34      34       0       0       0       0
     Bu        66      66       0       0       0       0
   -------------------------------------------------------
    Total     200     200      34      32      32       2
   -------------------------------------------------------

  ==> Integral Setup <==

  ==> DiskDFJK: Density-Fitted J/K Matrices <==

    J tasked:                  Yes
    K tasked:                  Yes
    wK tasked:                 Yes
    Omega:               2.000E-01
    OpenMP threads:              1
    Integrals threads:           1
    Memory [MiB]:            10314
    Algorithm:                Core
    Integral Cache:           NONE
    Schwarz Cutoff:          1E-12
    Fitting Condition:       1E-10

   => Auxiliary Basis Set <=

  Basis Set: (AUG-CC-PVTZ AUX)
    Blend: AUG-CC-PVTZ-JKFIT
    Number of shells: 168
    Number of basis function: 584
    Number of Cartesian functions: 720
    Spherical Harmonics?: true
    Max angular momentum: 4

  Cached 100.0% of DFT collocation blocks in 1.103 [GiB].

  Minimum eigenvalue in the overlap matrix is 2.1178000566E-04.
  Using Symmetric Orthogonalization.

  SCF Guess: Superposition of Atomic Densities via on-the-fly atomic UHF.

  ==> Iterations <==

                           Total Energy        Delta E     RMS |[F,P]|

   @DF-UKS iter SAD: -1592.36496285355315   -1.59236e+03   0.00000e+00 
   @DF-UKS iter   1: -1592.49918864730284   -1.34226e-01   5.78876e-03 DIIS
   @DF-UKS iter   2: -1592.57635208249440   -7.71634e-02   5.32124e-03 DIIS
   @DF-UKS iter   3: -1592.74597704202483   -1.69625e-01   4.44478e-04 DIIS
   @DF-UKS iter   4: -1592.74882641198019   -2.84937e-03   2.43114e-04 DIIS
   @DF-UKS iter   5: -1592.75032443722102   -1.49803e-03   1.07894e-04 DIIS
   @DF-UKS iter   6: -1592.75106782189505   -7.43385e-04   1.03672e-04 DIIS
   @DF-UKS iter   7: -1592.75158502594786   -5.17204e-04   5.35570e-05 DIIS
   @DF-UKS iter   8: -1592.75212309477092   -5.38069e-04   2.20284e-05 DIIS
   @DF-UKS iter   9: -1592.75222288561849   -9.97908e-05   1.29902e-05 DIIS
   @DF-UKS iter  10: -1592.75226614626422   -4.32606e-05   8.52529e-06 DIIS
   @DF-UKS iter  11: -1592.75228530105414   -1.91548e-05   5.37082e-06 DIIS
   @DF-UKS iter  12: -1592.75229675698256   -1.14559e-05   2.59909e-06 DIIS
   @DF-UKS iter  13: -1592.75229921880327   -2.46182e-06   1.33022e-06 DIIS
   @DF-UKS iter  14: -1592.75229976112701   -5.42324e-07   8.31884e-07 DIIS
   @DF-UKS iter  15: -1592.75229983496070   -7.38337e-08   5.00766e-07 DIIS
   @DF-UKS iter  16: -1592.75229987177045   -3.68098e-08   1.65202e-07 DIIS
   @DF-UKS iter  17: -1592.75229987425678   -2.48633e-09   5.98600e-08 DIIS
   @DF-UKS iter  18: -1592.75229987448438   -2.27601e-10   2.50641e-08 DIIS
   @DF-UKS iter  19: -1592.75229987452849   -4.41105e-11   9.55868e-09 DIIS
  Energy and wave function converged.


  ==> Post-Iterations <==

   @Spin Contamination Metric:   7.088081409E-03
   @S^2 Expected:                2.000000000E+00
   @S^2 Observed:                2.007088081E+00
   @S   Expected:                1.000000000E+00
   @S   Observed:                1.000000000E+00

    Orbital Energies [Eh]
    ---------------------

    Alpha Occupied:                                                       

       1Bu   -88.848738     1Ag   -88.848735     2Bu   -88.761171  
       2Ag   -88.761169     3Ag    -7.852499     3Bu    -7.852424  
       4Bu    -7.769137     4Ag    -7.769137     5Ag    -5.801463  
       5Bu    -5.801223     6Ag    -5.797476     6Bu    -5.797435  
       1Au    -5.797312     1Bg    -5.797296     7Ag    -5.720306  
       7Bu    -5.720306     2Bg    -5.713076     2Au    -5.713076  
       8Ag    -5.711013     8Bu    -5.711013     9Ag    -0.674060  
       9Bu    -0.583152    10Ag    -0.463026    10Bu    -0.397129  
      11Ag    -0.228483    11Bu    -0.202972     3Au    -0.199228  
      12Ag    -0.137740     3Bg    -0.121451    12Bu    -0.063462  
      13Ag    -0.034205     4Au    -0.032142     4Bg    -0.004617  
      13Bu     0.145658  

    Alpha Virtual:                                                        

      14Ag     0.227175    14Bu     0.253048    15Ag     0.277282  
      15Bu     0.286231    16Ag     0.298190     5Au     0.300243  
      16Bu     0.305885     5Bg     0.309690     6Bg     0.321710  
      17Bu     0.328820    17Ag     0.338746    18Bu     0.340415  
       6Au     0.341820    18Ag     0.349883    19Ag     0.371496  
      19Bu     0.425285    20Ag     0.434633    20Bu     0.441959  
       7Au     0.452834     7Bg     0.470109    21Ag     0.506603  
      21Bu     0.507667    22Bu     0.526131     8Bg     0.532380  
       8Au     0.534022    22Ag     0.537122    23Bu     0.541746  
      23Ag     0.553476     9Au     0.568437    24Ag     0.601122  
       9Bg     0.601870    24Bu     0.609320    25Ag     0.620964  
      10Bg     0.636369    25Bu     0.637058    10Au     0.640198  
      26Bu     0.670784    26Ag     0.694854    11Au     0.719163  
      11Bg     0.787576    27Bu     0.797749    27Ag     0.808217  
      12Au     0.809781    28Ag     0.820521    12Bg     0.823244  
      28Bu     0.824172    13Au     0.830638    29Bu     0.840686  
      29Ag     0.843237    30Ag     0.847184    14Au     0.854548  
      30Bu     0.868074    31Ag     0.877834    13Bg     0.899828  
      31Bu     0.902444    32Ag     0.903128    15Au     0.932514  
      14Bg     0.933632    33Ag     0.934436    32Bu     0.946681  
      34Ag     0.953272    33Bu     0.958596    15Bg     0.979353  
      16Bg     1.003912    35Ag     1.007926    16Au     1.025891  
      34Bu     1.037524    17Bg     1.057702    17Au     1.061889  
      36Ag     1.066263    35Bu     1.072534    36Bu     1.093274  
      37Ag     1.098097    18Bg     1.110074    38Ag     1.112953  
      37Bu     1.127292    18Au     1.186808    38Bu     1.207308  
      39Ag     1.267991    39Bu     1.283976    19Au     1.289282  
      19Bg     1.294253    20Au     1.297972    40Ag     1.322627  
      40Bu     1.329552    20Bg     1.387707    41Ag     1.401301  
      41Bu     1.411461    42Ag     1.435065    21Au     1.445870  
      42Bu     1.451265    21Bg     1.466525    22Au     1.498557  
      43Bu     1.502763    22Bg     1.516989    43Ag     1.527238  
      44Ag     1.572836    44Bu     1.646323    45Ag     1.659044  
      45Bu     1.698604    46Ag     1.791361    46Bu     1.819756  
      23Au     2.098320    47Ag     2.103238    23Bg     2.128084  
      47Bu     2.146926    24Bg     2.152723    48Bu     2.158521  
      48Ag     2.160571    24Au     2.173786    49Bu     2.192619  
      25Au     2.193313    50Bu     2.199467    49Ag     2.203335  
      25Bg     2.220552    26Au     2.268439    50Ag     2.281995  
      27Au     2.287578    51Bu     2.296348    26Bg     2.317742  
      51Ag     2.320177    52Bu     2.333299    28Au     2.337713  
      27Bg     2.340255    52Ag     2.355257    28Bg     2.358453  
      29Au     2.360944    53Ag     2.390095    53Bu     2.420687  
      54Ag     2.452035    30Au     2.456889    54Bu     2.478988  
      55Ag     2.479906    29Bg     2.487341    55Bu     2.487545  
      56Bu     2.513281    31Au     2.534858    30Bg     2.541520  
      31Bg     2.561738    57Bu     2.579674    56Ag     2.584536  
      57Ag     2.613325    32Au     2.618288    33Au     2.626618  
      58Ag     2.628021    32Bg     2.638540    58Bu     2.643081  
      59Bu     2.700574    59Ag     2.720612    60Bu     2.730071  
      60Ag     2.802591    61Ag     2.828449    61Bu     2.829410  
      33Bg     2.840267    34Au     2.880995    34Bg     2.904499  
      62Ag     2.942690    62Bu     3.006910    63Ag     3.058280  
      63Bu     3.947972    64Ag     3.974780    64Bu     4.010030  
      65Ag     5.105398    65Bu     5.552723    66Ag     5.930120  
      66Bu     6.104574  

    Beta Occupied:                                                        

       1Bu   -88.846541     1Ag   -88.846538     2Bu   -88.759861  
       2Ag   -88.759860     3Ag    -7.850181     3Bu    -7.850092  
       4Ag    -7.767667     4Bu    -7.767666     5Ag    -5.799986  
       5Bu    -5.799738     6Ag    -5.795800     6Bu    -5.795765  
       1Au    -5.790082     1Bg    -5.790061     7Ag    -5.719225  
       7Bu    -5.719224     8Ag    -5.710048     8Bu    -5.710048  
       2Au    -5.709143     2Bg    -5.709143     9Ag    -0.663365  
       9Bu    -0.572895    10Ag    -0.452800    10Bu    -0.378141  
      11Ag    -0.221662    11Bu    -0.196016     3Au    -0.171366  
      12Ag    -0.130318     3Bg    -0.093574    12Bu    -0.059821  
      13Ag    -0.030663     4Au     0.008355  

    Beta Virtual:                                                         

       4Bg     0.190843    13Bu     0.273456    14Bu     0.287315  
      14Ag     0.301942    15Bu     0.304504     5Au     0.316226  
      15Ag     0.321302     5Bg     0.333610    16Bu     0.336562  
      16Ag     0.337444     6Bg     0.346513    17Ag     0.353749  
       6Au     0.370183    18Ag     0.374125    17Bu     0.375053  
      18Bu     0.386294    19Ag     0.411928    19Bu     0.432366  
       7Au     0.456772    20Ag     0.469806    20Bu     0.472107  
       7Bg     0.476067    21Bu     0.510076    21Ag     0.517556  
      22Bu     0.528971     8Bg     0.535878     8Au     0.540538  
      22Ag     0.552493    23Ag     0.556629    23Bu     0.561415  
       9Au     0.575501     9Bg     0.607764    24Ag     0.609541  
      24Bu     0.613171    25Ag     0.630998    10Bg     0.640688  
      25Bu     0.641444    10Au     0.643834    26Bu     0.679326  
      26Ag     0.699236    11Au     0.727151    11Bg     0.791892  
      27Bu     0.801241    27Ag     0.812824    12Au     0.815546  
      28Ag     0.825325    28Bu     0.827700    12Bg     0.829231  
      13Au     0.836960    29Bu     0.842217    29Ag     0.848464  
      30Ag     0.853323    14Au     0.859739    30Bu     0.880269  
      31Ag     0.881088    13Bg     0.903522    31Bu     0.904349  
      32Ag     0.908850    33Ag     0.935169    14Bg     0.937043  
      15Au     0.937097    32Bu     0.955342    34Ag     0.961191  
      33Bu     0.964398    15Bg     0.987435    35Ag     1.009853  
      16Bg     1.012015    16Au     1.033810    34Bu     1.039956  
      17Bg     1.062834    17Au     1.062907    36Ag     1.068945  
      35Bu     1.077924    36Bu     1.095393    37Ag     1.104255  
      18Bg     1.110853    38Ag     1.114361    37Bu     1.128438  
      18Au     1.188299    38Bu     1.210082    39Ag     1.270577  
      39Bu     1.285482    19Au     1.292057    19Bg     1.297100  
      20Au     1.300621    40Ag     1.324626    40Bu     1.332394  
      20Bg     1.389744    41Ag     1.402400    41Bu     1.413089  
      42Ag     1.438669    21Au     1.447995    42Bu     1.452545  
      21Bg     1.472071    22Au     1.502872    43Bu     1.505478  
      22Bg     1.522113    43Ag     1.531386    44Ag     1.574305  
      44Bu     1.648737    45Ag     1.667643    45Bu     1.708622  
      46Ag     1.801765    46Bu     1.832566    23Au     2.106483  
      47Ag     2.110098    23Bg     2.137163    47Bu     2.153743  
      24Bg     2.158658    48Bu     2.163151    48Ag     2.166800  
      24Au     2.180313    49Bu     2.197461    25Au     2.200322  
      50Bu     2.202724    49Ag     2.205735    25Bg     2.230778  
      26Au     2.280277    50Ag     2.289396    27Au     2.298322  
      51Bu     2.300974    51Ag     2.325482    26Bg     2.328519  
      52Bu     2.339224    27Bg     2.348238    28Au     2.348434  
      52Ag     2.360426    28Bg     2.367409    29Au     2.378141  
      53Ag     2.392872    53Bu     2.424769    54Ag     2.454890  
      30Au     2.463703    54Bu     2.482292    55Ag     2.486074  
      55Bu     2.492652    29Bg     2.494972    56Bu     2.518942  
      31Au     2.540142    30Bg     2.554508    31Bg     2.571348  
      57Bu     2.585446    56Ag     2.590246    57Ag     2.621607  
      32Au     2.626893    58Ag     2.630947    33Au     2.637073  
      32Bg     2.646496    58Bu     2.650757    59Bu     2.707810  
      59Ag     2.726837    60Bu     2.734331    60Ag     2.805782  
      61Bu     2.833008    61Ag     2.833576    33Bg     2.852891  
      34Au     2.890631    34Bg     2.914182    62Ag     2.945408  
      62Bu     3.009734    63Ag     3.061397    63Bu     3.952161  
      64Ag     3.978714    64Bu     4.013932    65Ag     5.110448  
      65Bu     5.557911    66Ag     5.937498    66Bu     6.111397  

    Final Occupation by Irrep:
             Ag    Bg    Au    Bu 
    DOCC [    13,    3,    4,   12 ]
    SOCC [     0,    1,    0,    1 ]

  @DF-UKS Final Energy: -1592.75229987452849

   => Energetics <=

    Nuclear Repulsion Energy =            310.8007252881927798
    One-Electron Energy =               -2838.4118125542845519
    Two-Electron Energy =                1010.0030743496175774
    DFT Exchange-Correlation Energy =     -75.1437740396887790
    Empirical Dispersion Energy =          -0.0005129183655409
    VV10 Nonlocal Energy =                  0.0000000000000000
    Total Energy =                      -1592.7522998745287168

  UHF NO Occupations:
  HONO-2 :    4 Au 1.9987084
  HONO-1 :    4 Bg 1.0000000
  HONO-0 :   13 Bu 1.0000000
  LUNO+0 :    5 Au 0.0012916
  LUNO+1 :   14 Ag 0.0005419
  LUNO+2 :    5 Bg 0.0005074
  LUNO+3 :    6 Au 0.0004158


Computation Completed


Properties will be evaluated at   0.000000,   0.000000,   0.000000 [a0]

Properties computed using the SCF density matrix

  Nuclear Dipole Moment: [e a0]
     X:     0.0000      Y:     0.0000      Z:     0.0000

  Electronic Dipole Moment: [e a0]
     X:     0.0000      Y:     0.0000      Z:     0.0000

  Dipole Moment: [e a0]
     X:     0.0000      Y:     0.0000      Z:     0.0000     Total:     0.0000

  Dipole Moment: [D]
     X:     0.0000      Y:     0.0000      Z:     0.0000     Total:     0.0000


*** tstop() called on d4-10.compute.lan at Thu Feb 11 14:06:05 2021
Module time:
	user time   =     253.56 seconds =       4.23 minutes
	system time =       1.46 seconds =       0.02 minutes
	total time  =        255 seconds =       4.25 minutes
Total time:
	user time   =     253.56 seconds =       4.23 minutes
	system time =       1.46 seconds =       0.02 minutes
	total time  =        255 seconds =       4.25 minutes

*** tstart() called on d4-10.compute.lan
*** at Thu Feb 11 14:06:05 2021


         ------------------------------------------------------------
                                   SCF GRAD                          
                          Rob Parrish, Justin Turney,                
                       Andy Simmonett, and Alex Sokolov              
         ------------------------------------------------------------

  ==> Geometry <==

    Molecular point group: c2h
    Full point group: C2h

    Geometry (in Angstrom), charge = -2, multiplicity = 3:

       Center              X                  Y                   Z               Mass       
    ------------   -----------------  -----------------  -----------------  -----------------
         S            0.000000000000     1.025500000000     0.000000000000    31.972071174400
         S            0.000000000000    -1.025500000000     0.000000000000    31.972071174400
         S           -1.954116604900     1.552761125493     0.000000000000    31.972071174400
         S            1.954116604900    -1.552761125493     0.000000000000    31.972071174400

  Nuclear repulsion =  310.800725288192723

  ==> Basis Set <==

  Basis Set: AUG-CC-PVTZ
    Blend: AUG-CC-PVTZ
    Number of shells: 64
    Number of basis function: 200
    Number of Cartesian functions: 236
    Spherical Harmonics?: true
    Max angular momentum: 3

  ==> DFJKGrad: Density-Fitted SCF Gradients <==

    Gradient:                    1
    J tasked:                  Yes
    K tasked:                  Yes
    wK tasked:                 Yes
    Omega:               2.000E-01
    OpenMP threads:              1
    Integrals threads:           1
    Memory [MiB]:            11444
    Schwarz Cutoff:          0E+00
    Fitting Condition:       1E-10

   => Auxiliary Basis Set <=

  Basis Set: (AUG-CC-PVTZ AUX)
    Blend: AUG-CC-PVTZ-JKFIT
    Number of shells: 168
    Number of basis function: 584
    Number of Cartesian functions: 720
    Spherical Harmonics?: true
    Max angular momentum: 4

  ==> DFT Potential <==

   => Composite Functional: WB97X-D <= 

    wB97X-D Hyb-GGA Exchange-Correlation Functional

    J.-D. Chai and M. Head-Gordon, Phys. Chem. Chem. Phys. 10, 6615 (2008)

    Deriv               =              1
    GGA                 =           TRUE
    Meta                =          FALSE

    Exchange Hybrid     =           TRUE
    MP2 Hybrid          =          FALSE

   => Exchange-Correlation Functionals <=

    1.0000   wB97D range-separated functional

   => Exact (HF) Exchange <=

    0.7780            HF,LR [omega = 0.2000]
    0.2220               HF 

   => Molecular Quadrature <=

    Radial Scheme          =       TREUTLER
    Pruning Scheme         =           NONE
    Nuclear Scheme         =       TREUTLER

    BS radius alpha        =              1
    Pruning alpha          =              1
    Radial Points          =             99
    Spherical Points       =            590
    Total Points           =         225778
    Total Blocks           =           1818
    Max Points             =            256
    Max Functions          =            200
    Weights Tolerance      =       1.00E-15


  -Total Gradient:
     Atom            X                  Y                   Z
    ------   -----------------  -----------------  -----------------
       1        0.008461016153     0.001072617584     0.000000000000
       2       -0.008461016153    -0.001072617584     0.000000000000
       3        0.003310912415    -0.007082511628     0.000000000000
       4       -0.003310912415     0.007082511628     0.000000000000


*** tstop() called on d4-10.compute.lan at Thu Feb 11 14:06:47 2021
Module time:
	user time   =      40.99 seconds =       0.68 minutes
	system time =       0.20 seconds =       0.00 minutes
	total time  =         42 seconds =       0.70 minutes
Total time:
	user time   =     294.55 seconds =       4.91 minutes
	system time =       1.66 seconds =       0.03 minutes
	total time  =        297 seconds =       4.95 minutes

			-----------------------------------------
			 OPTKING 2.0: for geometry optimizations 
			  - R.A. King,  Bethel University        
			-----------------------------------------

	Internal coordinates to be generated automatically.
	Detected frag 1 with atoms:  1 2 3 4
	---Fragment 1 Bond Connectivity---
	 1 : 2 3
	 2 : 1 4
	 3 : 1
	 4 : 2

	---Fragment 1 Geometry and Gradient---
	 S           0.0000000000        1.9379141417        0.0000000000
	 S           0.0000000000       -1.9379141417        0.0000000000
	 S          -3.6927452005        2.9342932654        0.0000000000
	 S           3.6927452005       -2.9342932654        0.0000000000
	             0.0084610162        0.0010726176        0.0000000000
	            -0.0084610162       -0.0010726176        0.0000000000
	             0.0033109124       -0.0070825116        0.0000000000
	            -0.0033109124        0.0070825116        0.0000000000

	Previous optimization step data not found.  Starting new optimization.

	---Fragment 1 Intrafragment Coordinates---
	 - Coordinate -           - BOHR/RAD -       - ANG/DEG -
	 R(1,2)           =         3.875828	       2.051000
	 R(1,3)           =         3.824806	       2.024000
	 R(2,4)           =         3.824806	       2.024000
	 B(1,2,4)         =         1.834341	     105.100000
	 B(2,1,3)         =         1.834341	     105.100000
	 D(3,1,2,4)       =         3.141593	     180.000000

	Current energy   :     -1592.7522998745

	Generating empirical Hessian (Schlegel '84) for each fragment.
	Taking RFO optimization step.
	Going to follow RFO solution 1.
	Using RFO vector 1.
	Norm of target step-size    0.13038
	Projected energy change by RFO approximation:        -0.0044122776

	Back-transformation to cartesian coordinates...
	Successfully converged to displaced geometry.

	--- Internal Coordinate Step in ANG or DEG, aJ/ANG or AJ/DEG ---
	 ---------------------------------------------------------------------------
	   Coordinate                Previous        Force       Change         New 
	   ----------                --------       ------       ------       ------
	    1 R(1,2)          =      2.051000     0.049465     0.010667     2.061667
	    2 R(1,3)          =      2.024000     0.041561     0.008235     2.032235
	    3 R(2,4)          =      2.024000     0.041561     0.008235     2.032235
	    4 B(1,2,4)        =    105.100000     0.001737     5.141857   110.241857
	    5 B(2,1,3)        =    105.100000     0.001737     5.141857   110.241857
	    6 D(3,1,2,4)      =    180.000000     0.000000     0.000000   180.000000
	 ---------------------------------------------------------------------------
	Successfully symmetrized geometry.

  ==> Convergence Check <==

  Measures of convergence in internal coordinates in au.
  Criteria marked as inactive (o), active & met (*), and active & unmet ( ).
  --------------------------------------------------------------------------------------------- ~
   Step     Total Energy     Delta E     MAX Force     RMS Force      MAX Disp      RMS Disp    ~
  --------------------------------------------------------------------------------------------- ~
    Convergence Criteria             o    2.00e-06 *    1.00e-06 *    6.00e-06 *    4.00e-06 *  ~
  --------------------------------------------------------------------------------------------- ~
      1   -1592.75229987   -1.59e+03 o    2.28e-02      1.37e-02      8.97e-02      5.32e-02    ~
  ---------------------------------------------------------------------------------------------

	Writing optimization data to binary file.
	Structure for next step:
	Cartesian Geometry (in Angstrom)
	    S    -0.0588678489   1.0291511153   0.0000000000
	    S     0.0588678489  -1.0291511153   0.0000000000
	    S    -2.0026343098   1.6222363776   0.0000000000
	    S     2.0026343098  -1.6222363776   0.0000000000
			--------------------------
			 OPTKING Finished Execution 
			--------------------------

    Structure for next step:
    Molecular point group: c2h
    Full point group: C2h

    Geometry (in Angstrom), charge = -2, multiplicity = 3:

    S       
    S             1          r1
    S             1          r2      2          a1
    S             2          r3      1          a2      3          d1

    a1        =  110.2418571560
    a2        =  110.2418571560
    d1        = -180.0000000000
    r1        =    2.0616667529
    r2        =    2.0322347835
    r3        =    2.0322347835

gradient() will perform analytic gradient computation.

*** tstart() called on d4-10.compute.lan
*** at Thu Feb 11 14:06:47 2021

   => Loading Basis Set <=

    Name: AUG-CC-PVTZ
    Role: ORBITAL
    Keyword: BASIS
    atoms 1-4 entry S          line   906 file /apps/gb/PSI4/1.4.0/share/psi4/basis/aug-cc-pvtz.gbs 

   => WB97X-D: Empirical Dispersion <=

    Chai and Head-Gordon Dispersion Correction
    Chai, J.-D.; Head-Gordon, M. (2010), J. Chem. Phys., 132: 6615-6620

        s6 =       1.000000


         ---------------------------------------------------------
                                   SCF
               by Justin Turney, Rob Parrish, Andy Simmonett
                          and Daniel G. A. Smith
                              UKS Reference
                        1 Threads,  15258 MiB Core
         ---------------------------------------------------------

  ==> Geometry <==

    Molecular point group: c2h
    Full point group: C2h

    Geometry (in Angstrom), charge = -2, multiplicity = 3:

       Center              X                  Y                   Z               Mass       
    ------------   -----------------  -----------------  -----------------  -----------------
         S            0.000000000000     1.030833376467     0.000000000000    31.972071174400
         S            0.000000000000    -1.030833376467     0.000000000000    31.972071174400
         S           -1.906725012724     1.733953523433     0.000000000000    31.972071174400
         S            1.906725012724    -1.733953523433     0.000000000000    31.972071174400

  Running in c2h symmetry.

  Rotational constants: A =      0.48899  B =      0.03679  C =      0.03422 [cm^-1]
  Rotational constants: A =  14659.55416  B =   1102.95814  C =   1025.78030 [MHz]
  Nuclear repulsion =  305.983156091992498

  Charge       = -2
  Multiplicity = 3
  Electrons    = 66
  Nalpha       = 34
  Nbeta        = 32

  ==> Algorithm <==

  SCF Algorithm Type is DF.
  DIIS enabled.
  MOM disabled.
  Fractional occupation disabled.
  Guess Type is READ.
  Energy threshold   = 1.00e-08
  Density threshold  = 1.00e-08
  Integral threshold = 0.00e+00

  ==> Primary Basis <==

  Basis Set: AUG-CC-PVTZ
    Blend: AUG-CC-PVTZ
    Number of shells: 64
    Number of basis function: 200
    Number of Cartesian functions: 236
    Spherical Harmonics?: true
    Max angular momentum: 3

  ==> DFT Potential <==

   => Composite Functional: WB97X-D <= 

    wB97X-D Hyb-GGA Exchange-Correlation Functional

    J.-D. Chai and M. Head-Gordon, Phys. Chem. Chem. Phys. 10, 6615 (2008)

    Deriv               =              1
    GGA                 =           TRUE
    Meta                =          FALSE

    Exchange Hybrid     =           TRUE
    MP2 Hybrid          =          FALSE

   => Exchange-Correlation Functionals <=

    1.0000   wB97D range-separated functional

   => Exact (HF) Exchange <=

    0.7780            HF,LR [omega = 0.2000]
    0.2220               HF 

   => Molecular Quadrature <=

    Radial Scheme          =       TREUTLER
    Pruning Scheme         =           NONE
    Nuclear Scheme         =       TREUTLER

    BS radius alpha        =              1
    Pruning alpha          =              1
    Radial Points          =             99
    Spherical Points       =            590
    Total Points           =         225808
    Total Blocks           =           1849
    Max Points             =            256
    Max Functions          =            200
    Weights Tolerance      =       1.00E-15

   => Loading Basis Set <=

    Name: (AUG-CC-PVTZ AUX)
    Role: JKFIT
    Keyword: DF_BASIS_SCF
    atoms 1-4 entry S          line   730 file /apps/gb/PSI4/1.4.0/share/psi4/basis/aug-cc-pvtz-jkfit.gbs 

   => Loading Basis Set <=

    Name: AUG-CC-PVTZ
    Role: ORBITAL
    Keyword: BASIS
    atoms 1-4 entry S          line   906 file /apps/gb/PSI4/1.4.0/share/psi4/basis/aug-cc-pvtz.gbs 

  Reading orbitals from file 180, no projection.

  ==> Pre-Iterations <==

   -------------------------------------------------------
    Irrep   Nso     Nmo     Nalpha   Nbeta   Ndocc  Nsocc
   -------------------------------------------------------
     Ag        66      66       0       0       0       0
     Bg        34      34       0       0       0       0
     Au        34      34       0       0       0       0
     Bu        66      66       0       0       0       0
   -------------------------------------------------------
    Total     200     200      34      32      32       2
   -------------------------------------------------------

  ==> Integral Setup <==

  ==> DiskDFJK: Density-Fitted J/K Matrices <==

    J tasked:                  Yes
    K tasked:                  Yes
    wK tasked:                 Yes
    Omega:               2.000E-01
    OpenMP threads:              1
    Integrals threads:           1
    Memory [MiB]:            10332
    Algorithm:                Core
    Integral Cache:           NONE
    Schwarz Cutoff:          1E-12
    Fitting Condition:       1E-10

   => Auxiliary Basis Set <=

  Basis Set: (AUG-CC-PVTZ AUX)
    Blend: AUG-CC-PVTZ-JKFIT
    Number of shells: 168
    Number of basis function: 584
    Number of Cartesian functions: 720
    Spherical Harmonics?: true
    Max angular momentum: 4

  Cached 100.0% of DFT collocation blocks in 1.086 [GiB].

  Minimum eigenvalue in the overlap matrix is 2.1148058185E-04.
  Using Symmetric Orthogonalization.

  SCF Guess: Orbitals guess was supplied from a previous computation.

  ==> Iterations <==

                           Total Energy        Delta E     RMS |[F,P]|

   @DF-UKS iter   0: -1592.77689400753820   -1.59278e+03   8.11467e-03 
   @DF-UKS iter   1: -1592.73736619116244    3.95278e-02   1.22956e-03 DIIS
   @DF-UKS iter   2: -1592.73841225410479   -1.04606e-03   1.55802e-03 DIIS
   @DF-UKS iter   3: -1592.75456748042689   -1.61552e-02   1.93845e-04 DIIS
   @DF-UKS iter   4: -1592.75509927191911   -5.31791e-04   9.25505e-05 DIIS
   @DF-UKS iter   5: -1592.75541871261612   -3.19441e-04   4.12622e-05 DIIS
   @DF-UKS iter   6: -1592.75559515512805   -1.76443e-04   2.64186e-05 DIIS
   @DF-UKS iter   7: -1592.75570582037221   -1.10665e-04   1.47104e-05 DIIS
   @DF-UKS iter   8: -1592.75573401124575   -2.81909e-05   6.35488e-06 DIIS
   @DF-UKS iter   9: -1592.75573955666960   -5.54542e-06   3.10033e-06 DIIS
   @DF-UKS iter  10: -1592.75574033663725   -7.79968e-07   1.67018e-06 DIIS
   @DF-UKS iter  11: -1592.75574062165879   -2.85022e-07   1.01087e-06 DIIS
   @DF-UKS iter  12: -1592.75574075407258   -1.32414e-07   6.53555e-07 DIIS
   @DF-UKS iter  13: -1592.75574086320194   -1.09129e-07   3.52122e-07 DIIS
   @DF-UKS iter  14: -1592.75574089603515   -3.28332e-08   1.49940e-07 DIIS
   @DF-UKS iter  15: -1592.75574090090981   -4.87466e-09   5.69878e-08 DIIS
   @DF-UKS iter  16: -1592.75574090127247   -3.62661e-10   3.11207e-08 DIIS
   @DF-UKS iter  17: -1592.75574090133841   -6.59384e-11   1.20169e-08 DIIS
   @DF-UKS iter  18: -1592.75574090134614   -7.73070e-12   5.92803e-09 DIIS
  Energy and wave function converged.


  ==> Post-Iterations <==

   @Spin Contamination Metric:   9.174505034E-03
   @S^2 Expected:                2.000000000E+00
   @S^2 Observed:                2.009174505E+00
   @S   Expected:                1.000000000E+00
   @S   Observed:                1.000000000E+00

    Orbital Energies [Eh]
    ---------------------

    Alpha Occupied:                                                       

       1Bu   -88.833791     1Ag   -88.833788     2Bu   -88.752229  
       2Ag   -88.752228     3Ag    -7.837704     3Bu    -7.837632  
       4Bu    -7.760047     4Ag    -7.760047     5Ag    -5.786761  
       5Bu    -5.786536     1Au    -5.782672     1Bg    -5.782660  
       6Ag    -5.782437     6Bu    -5.782398     7Ag    -5.711259  
       7Bu    -5.711259     2Bg    -5.703999     2Au    -5.703998  
       8Ag    -5.702072     8Bu    -5.702071     9Ag    -0.656774  
       9Bu    -0.572176    10Ag    -0.457361    10Bu    -0.384240  
      11Ag    -0.216607    11Bu    -0.191029     3Au    -0.185273  
      12Ag    -0.125394     3Bg    -0.112034    12Bu    -0.056910  
       4Au    -0.025504    13Ag    -0.024988     4Bg     0.006724  
      13Bu     0.141538  

    Alpha Virtual:                                                        

      14Ag     0.232207    14Bu     0.259736    15Bu     0.274512  
      15Ag     0.282081    16Ag     0.303831     5Au     0.304238  
      16Bu     0.312224     5Bg     0.312878     6Bg     0.326851  
      17Bu     0.334435     6Au     0.345215    18Bu     0.346910  
      17Ag     0.348074    18Ag     0.354882    19Ag     0.376722  
      19Bu     0.431688    20Ag     0.438771    20Bu     0.446556  
       7Au     0.460836     7Bg     0.474843    21Bu     0.508428  
      21Ag     0.514539     8Bg     0.535902    22Ag     0.537943  
      22Bu     0.541079     8Au     0.547377    23Bu     0.548649  
      23Ag     0.559631     9Au     0.565973    24Ag     0.601386  
       9Bg     0.606741    24Bu     0.609455    25Ag     0.626526  
      10Au     0.641958    10Bg     0.644171    25Bu     0.646696  
      26Bu     0.676046    26Ag     0.701175    11Au     0.726390  
      11Bg     0.793930    27Bu     0.802108    27Ag     0.813689  
      12Au     0.816821    28Ag     0.827566    12Bg     0.830998  
      28Bu     0.837375    13Au     0.842478    29Ag     0.847059  
      29Bu     0.847395    30Ag     0.854158    14Au     0.863158  
      30Bu     0.875798    31Ag     0.885245    31Bu     0.904857  
      13Bg     0.910133    32Ag     0.914169    14Bg     0.929966  
      15Au     0.937025    33Ag     0.938067    32Bu     0.947584  
      34Ag     0.959635    33Bu     0.971152    15Bg     0.981451  
      35Ag     1.013561    16Bg     1.019836    16Au     1.033849  
      34Bu     1.037930    17Bg     1.062768    17Au     1.067271  
      36Ag     1.071640    35Bu     1.079289    36Bu     1.099767  
      37Ag     1.103563    18Bg     1.116184    38Ag     1.119149  
      37Bu     1.126356    18Au     1.176596    38Bu     1.207087  
      39Ag     1.268827    19Au     1.280047    39Bu     1.302762  
      19Bg     1.310277    20Au     1.316179    40Bu     1.319539  
      40Ag     1.324693    20Bg     1.366887    41Bu     1.394926  
      41Ag     1.409556    42Ag     1.444656    21Au     1.460300  
      42Bu     1.474560    21Bg     1.480587    22Au     1.509101  
      43Bu     1.510593    43Ag     1.522476    22Bg     1.525324  
      44Ag     1.604656    45Ag     1.647595    44Bu     1.661067  
      45Bu     1.697254    46Ag     1.811742    46Bu     1.823098  
      23Au     2.109816    47Ag     2.111175    23Bg     2.135307  
      47Bu     2.142985    24Bg     2.158886    48Ag     2.164988  
      48Bu     2.171967    24Au     2.188471    25Au     2.196076  
      49Bu     2.208733    49Ag     2.219137    50Bu     2.220736  
      25Bg     2.235628    26Au     2.282966    50Ag     2.289694  
      51Bu     2.297823    27Au     2.302534    28Au     2.325108  
      51Ag     2.330520    26Bg     2.332232    27Bg     2.341584  
      52Bu     2.352156    52Ag     2.355259    29Au     2.371239  
      28Bg     2.377097    53Ag     2.396972    53Bu     2.431665  
      54Ag     2.434982    30Au     2.470285    54Bu     2.471289  
      55Ag     2.486107    29Bg     2.486186    55Bu     2.490836  
      56Bu     2.516638    31Au     2.531401    30Bg     2.552876  
      31Bg     2.569660    57Bu     2.576856    56Ag     2.581044  
      57Ag     2.615175    32Au     2.615282    33Au     2.626797  
      58Ag     2.642868    32Bg     2.649782    58Bu     2.677229  
      59Bu     2.696787    59Ag     2.728513    60Bu     2.750607  
      60Ag     2.793826    61Ag     2.833992    61Bu     2.837231  
      33Bg     2.846466    34Au     2.894317    34Bg     2.898991  
      62Ag     2.953395    62Bu     2.962203    63Ag     3.018005  
      63Bu     3.954794    64Ag     3.974187    64Bu     4.031286  
      65Ag     5.180759    65Bu     5.474989    66Ag     5.956288  
      66Bu     6.074326  

    Beta Occupied:                                                        

       1Bu   -88.831249     1Ag   -88.831247     2Bu   -88.750711  
       2Ag   -88.750710     3Ag    -7.834959     3Bu    -7.834874  
       4Ag    -7.758355     4Bu    -7.758354     5Ag    -5.785185  
       5Bu    -5.784963     6Ag    -5.779980     6Bu    -5.779937  
       1Au    -5.775002     1Bg    -5.774983     7Ag    -5.709579  
       7Bu    -5.709578     8Ag    -5.700865     8Bu    -5.700865  
       2Au    -5.699985     2Bg    -5.699985     9Ag    -0.643181  
       9Bu    -0.559763    10Ag    -0.445229    10Bu    -0.363918  
      11Ag    -0.208944    11Bu    -0.181244     3Au    -0.155793  
      12Ag    -0.115512     3Bg    -0.082706    12Bu    -0.052293  
      13Ag    -0.019610     4Au     0.015542  

    Beta Virtual:                                                         

       4Bg     0.202170    13Bu     0.276046    14Bu     0.281415  
      14Ag     0.301102    15Bu     0.304682     5Au     0.314960  
      15Ag     0.316880    16Ag     0.328587     5Bg     0.332646  
      16Bu     0.337936     6Bg     0.341298    17Ag     0.357652  
       6Au     0.364453    17Bu     0.369116    18Bu     0.373206  
      18Ag     0.378940    19Ag     0.401586    19Bu     0.436829  
      20Ag     0.462955     7Au     0.464901    20Bu     0.468164  
       7Bg     0.480757    21Bu     0.510368    21Ag     0.522437  
       8Bg     0.538925    22Bu     0.543798    22Ag     0.551524  
       8Au     0.553920    23Ag     0.563356    23Bu     0.563731  
       9Au     0.571946    24Ag     0.606582    24Bu     0.610659  
       9Bg     0.612755    25Ag     0.632559    10Au     0.646120  
      10Bg     0.646726    25Bu     0.649713    26Bu     0.680494  
      26Ag     0.703966    11Au     0.733862    11Bg     0.797806  
      27Bu     0.806016    27Ag     0.817923    12Au     0.821663  
      28Ag     0.832326    12Bg     0.837750    28Bu     0.841488  
      29Bu     0.847843    13Au     0.848698    29Ag     0.851931  
      30Ag     0.857322    14Au     0.869893    30Bu     0.883652  
      31Ag     0.887590    31Bu     0.906961    13Bg     0.915199  
      32Ag     0.919575    14Bg     0.933728    33Ag     0.938178  
      15Au     0.941887    32Bu     0.955133    34Ag     0.967755  
      33Bu     0.979890    15Bg     0.990301    35Ag     1.016048  
      16Bg     1.028369    34Bu     1.040286    16Au     1.043213  
      17Bg     1.067843    17Au     1.068394    36Ag     1.076555  
      35Bu     1.081065    36Bu     1.105506    37Ag     1.108045  
      18Bg     1.117389    38Ag     1.121139    37Bu     1.127766  
      18Au     1.178440    38Bu     1.210423    39Ag     1.272300  
      19Au     1.283039    39Bu     1.304154    19Bg     1.313361  
      20Au     1.319194    40Bu     1.322888    40Ag     1.326146  
      20Bg     1.369250    41Bu     1.396620    41Ag     1.411588  
      42Ag     1.447634    21Au     1.463812    42Bu     1.476903  
      21Bg     1.486798    22Au     1.512529    43Bu     1.512617  
      43Ag     1.526696    22Bg     1.530686    44Ag     1.605806  
      45Ag     1.656165    44Bu     1.663688    45Bu     1.706732  
      46Ag     1.822915    46Bu     1.835596    47Ag     2.119248  
      23Au     2.119645    23Bg     2.145780    47Bu     2.150184  
      24Bg     2.165381    48Ag     2.171891    48Bu     2.178668  
      24Au     2.196482    25Au     2.204014    49Bu     2.212287  
      49Ag     2.222148    50Bu     2.226298    25Bg     2.246434  
      26Au     2.295313    50Ag     2.296484    51Bu     2.302833  
      27Au     2.313658    28Au     2.336279    51Ag     2.337943  
      26Bg     2.343345    27Bg     2.350201    52Bu     2.359027  
      52Ag     2.360296    28Bg     2.387232    29Au     2.388228  
      53Ag     2.400390    53Bu     2.436340    54Ag     2.439191  
      54Bu     2.475173    30Au     2.477655    55Ag     2.493105  
      29Bg     2.494044    55Bu     2.496256    56Bu     2.523783  
      31Au     2.537466    30Bg     2.568644    31Bg     2.579029  
      57Bu     2.585211    56Ag     2.589095    57Ag     2.619153  
      32Au     2.627576    33Au     2.636829    58Ag     2.650235  
      32Bg     2.659388    58Bu     2.685709    59Bu     2.704345  
      59Ag     2.736563    60Bu     2.756025    60Ag     2.798253  
      61Ag     2.839862    61Bu     2.841606    33Bg     2.859866  
      34Au     2.904850    34Bg     2.909526    62Ag     2.957416  
      62Bu     2.966377    63Ag     3.022083    63Bu     3.960601  
      64Ag     3.979117    64Bu     4.035930    65Ag     5.186295  
      65Bu     5.479799    66Ag     5.963713    66Bu     6.081146  

    Final Occupation by Irrep:
             Ag    Bg    Au    Bu 
    DOCC [    13,    3,    4,   12 ]
    SOCC [     0,    1,    0,    1 ]

  @DF-UKS Final Energy: -1592.75574090134614

   => Energetics <=

    Nuclear Repulsion Energy =            305.9831560919924982
    One-Electron Energy =               -2829.5492066397168855
    Two-Electron Energy =                1005.9620416267684959
    DFT Exchange-Correlation Energy =     -75.1511736409164541
    Empirical Dispersion Energy =          -0.0005583394734898
    VV10 Nonlocal Energy =                  0.0000000000000000
    Total Energy =                      -1592.7557409013459164

  UHF NO Occupations:
  HONO-2 :    4 Au 1.9986072
  HONO-1 :    4 Bg 1.0000000
  HONO-0 :   13 Bu 1.0000000
  LUNO+0 :    5 Au 0.0013928
  LUNO+1 :   14 Ag 0.0012487
  LUNO+2 :    5 Bg 0.0005332
  LUNO+3 :   14 Bu 0.0004809


Computation Completed


Properties will be evaluated at   0.000000,   0.000000,   0.000000 [a0]

Properties computed using the SCF density matrix

  Nuclear Dipole Moment: [e a0]
     X:     0.0000      Y:    -0.0000      Z:     0.0000

  Electronic Dipole Moment: [e a0]
     X:     0.0000      Y:     0.0000      Z:     0.0000

  Dipole Moment: [e a0]
     X:     0.0000      Y:    -0.0000      Z:     0.0000     Total:     0.0000

  Dipole Moment: [D]
     X:     0.0000      Y:    -0.0000      Z:     0.0000     Total:     0.0000


*** tstop() called on d4-10.compute.lan at Thu Feb 11 14:10:45 2021
Module time:
	user time   =     236.83 seconds =       3.95 minutes
	system time =       1.04 seconds =       0.02 minutes
	total time  =        238 seconds =       3.97 minutes
Total time:
	user time   =     531.39 seconds =       8.86 minutes
	system time =       2.70 seconds =       0.04 minutes
	total time  =        535 seconds =       8.92 minutes

*** tstart() called on d4-10.compute.lan
*** at Thu Feb 11 14:10:45 2021


         ------------------------------------------------------------
                                   SCF GRAD                          
                          Rob Parrish, Justin Turney,                
                       Andy Simmonett, and Alex Sokolov              
         ------------------------------------------------------------

  ==> Geometry <==

    Molecular point group: c2h
    Full point group: C2h

    Geometry (in Angstrom), charge = -2, multiplicity = 3:

       Center              X                  Y                   Z               Mass       
    ------------   -----------------  -----------------  -----------------  -----------------
         S            0.000000000000     1.030833376467     0.000000000000    31.972071174400
         S            0.000000000000    -1.030833376467     0.000000000000    31.972071174400
         S           -1.906725012724     1.733953523433     0.000000000000    31.972071174400
         S            1.906725012724    -1.733953523433     0.000000000000    31.972071174400

  Nuclear repulsion =  305.983156091992498

  ==> Basis Set <==

  Basis Set: AUG-CC-PVTZ
    Blend: AUG-CC-PVTZ
    Number of shells: 64
    Number of basis function: 200
    Number of Cartesian functions: 236
    Spherical Harmonics?: true
    Max angular momentum: 3

  ==> DFJKGrad: Density-Fitted SCF Gradients <==

    Gradient:                    1
    J tasked:                  Yes
    K tasked:                  Yes
    wK tasked:                 Yes
    Omega:               2.000E-01
    OpenMP threads:              1
    Integrals threads:           1
    Memory [MiB]:            11444
    Schwarz Cutoff:          0E+00
    Fitting Condition:       1E-10

   => Auxiliary Basis Set <=

  Basis Set: (AUG-CC-PVTZ AUX)
    Blend: AUG-CC-PVTZ-JKFIT
    Number of shells: 168
    Number of basis function: 584
    Number of Cartesian functions: 720
    Spherical Harmonics?: true
    Max angular momentum: 4

  ==> DFT Potential <==

   => Composite Functional: WB97X-D <= 

    wB97X-D Hyb-GGA Exchange-Correlation Functional

    J.-D. Chai and M. Head-Gordon, Phys. Chem. Chem. Phys. 10, 6615 (2008)

    Deriv               =              1
    GGA                 =           TRUE
    Meta                =          FALSE

    Exchange Hybrid     =           TRUE
    MP2 Hybrid          =          FALSE

   => Exchange-Correlation Functionals <=

    1.0000   wB97D range-separated functional

   => Exact (HF) Exchange <=

    0.7780            HF,LR [omega = 0.2000]
    0.2220               HF 

   => Molecular Quadrature <=

    Radial Scheme          =       TREUTLER
    Pruning Scheme         =           NONE
    Nuclear Scheme         =       TREUTLER

    BS radius alpha        =              1
    Pruning alpha          =              1
    Radial Points          =             99
    Spherical Points       =            590
    Total Points           =         225808
    Total Blocks           =           1849
    Max Points             =            256
    Max Functions          =            200
    Weights Tolerance      =       1.00E-15


  -Total Gradient:
     Atom            X                  Y                   Z
    ------   -----------------  -----------------  -----------------
       1        0.000866763171    -0.001869728979     0.000000000000
       2       -0.000866763171     0.001869728979     0.000000000000
       3        0.007002041300    -0.006828095680     0.000000000000
       4       -0.007002041300     0.006828095680     0.000000000000


*** tstop() called on d4-10.compute.lan at Thu Feb 11 14:11:26 2021
Module time:
	user time   =      40.53 seconds =       0.68 minutes
	system time =       0.17 seconds =       0.00 minutes
	total time  =         41 seconds =       0.68 minutes
Total time:
	user time   =     571.92 seconds =       9.53 minutes
	system time =       2.87 seconds =       0.05 minutes
	total time  =        576 seconds =       9.60 minutes

			-----------------------------------------
			 OPTKING 2.0: for geometry optimizations 
			  - R.A. King,  Bethel University        
			-----------------------------------------

	Previous internal coordinate definitions found.
	---Fragment 1 Geometry and Gradient---
	 S           0.0000000000        1.9479927625        0.0000000000
	 S           0.0000000000       -1.9479927625        0.0000000000
	 S          -3.6031880706        3.2766972736        0.0000000000
	 S           3.6031880706       -3.2766972736        0.0000000000
	             0.0008667632       -0.0018697290        0.0000000000
	            -0.0008667632        0.0018697290        0.0000000000
	             0.0070020413       -0.0068280957        0.0000000000
	            -0.0070020413        0.0068280957        0.0000000000

	---Fragment 1 Intrafragment Coordinates---
	 - Coordinate -           - BOHR/RAD -       - ANG/DEG -
	 R(1,2)           =         3.895986	       2.061667
	 R(1,3)           =         3.840367	       2.032235
	 R(2,4)           =         3.840367	       2.032235
	 B(1,2,4)         =         1.924083	     110.241857
	 B(2,1,3)         =         1.924083	     110.241857
	 D(3,1,2,4)       =         3.141593	     180.000000

	Current energy   :     -1592.7557409013

	Energy change for the previous step:
		Projected    :        -0.0044122776
		Actual       :        -0.0034410268
	Energy ratio indicates good step: Trust radius increased to 1.000e+00.


	Performing BFGS update.
	Previous computed or guess Hessian on step 1.
	Steps to be used in Hessian update: 1
	Taking RFO optimization step.
	Going to follow RFO solution 1.
	Using RFO vector 1.
	Norm of target step-size    0.39393
	Projected energy change by RFO approximation:         0.0080442708

	Back-transformation to cartesian coordinates...
	Successfully converged to displaced geometry.

	--- Internal Coordinate Step in ANG or DEG, aJ/ANG or AJ/DEG ---
	 ---------------------------------------------------------------------------
	   Coordinate                Previous        Force       Change         New 
	   ----------                --------       ------       ------       ------
	    1 R(1,2)          =      2.061667     0.071690     0.056582     2.118249
	    2 R(1,3)          =      2.032235     0.073572     0.052319     2.084554
	    3 R(2,4)          =      2.032235     0.073572     0.052319     2.084554
	    4 B(1,2,4)        =    110.241857     0.001166    14.277931   124.519789
	    5 B(2,1,3)        =    110.241857     0.001166    14.277931   124.519789
	    6 D(3,1,2,4)      =    180.000000     0.000000     0.000000   180.000000
	 ---------------------------------------------------------------------------
	Successfully symmetrized geometry.

  ==> Convergence Check <==

  Measures of convergence in internal coordinates in au.
  Criteria marked as inactive (o), active & met (*), and active & unmet ( ).
  ---------------------------------------------------------------------------------------------
   Step     Total Energy     Delta E     MAX Force     RMS Force      MAX Disp      RMS Disp   
  ---------------------------------------------------------------------------------------------
    Convergence Criteria             o    2.00e-06 *    1.00e-06 *    6.00e-06 *    4.00e-06 *
  ---------------------------------------------------------------------------------------------
      2   -1592.75574090   -3.44e-03 o    1.53e-02      1.08e-02      2.49e-01      1.61e-01    ~
  ---------------------------------------------------------------------------------------------

	Writing optimization data to binary file.
	Structure for next step:
	Cartesian Geometry (in Angstrom)
	    S    -0.1639286948   1.0463614007   0.0000000000
	    S     0.1639286948  -1.0463614007   0.0000000000
	    S    -2.0435971518   1.9475888268   0.0000000000
	    S     2.0435971518  -1.9475888268   0.0000000000
			--------------------------
			 OPTKING Finished Execution 
			--------------------------

    Structure for next step:
    Molecular point group: c2h
    Full point group: C2h

    Geometry (in Angstrom), charge = -2, multiplicity = 3:

    S       
    S             1          r1
    S             1          r2      2          a1
    S             2          r3      1          a2      3          d1

    a1        =  124.5197885359
    a2        =  124.5197885359
    d1        = -180.0000000000
    r1        =    2.1182490947
    r2        =    2.0845537690
    r3        =    2.0845537690

gradient() will perform analytic gradient computation.

*** tstart() called on d4-10.compute.lan
*** at Thu Feb 11 14:11:26 2021

   => Loading Basis Set <=

    Name: AUG-CC-PVTZ
    Role: ORBITAL
    Keyword: BASIS
    atoms 1-4 entry S          line   906 file /apps/gb/PSI4/1.4.0/share/psi4/basis/aug-cc-pvtz.gbs 

   => WB97X-D: Empirical Dispersion <=

    Chai and Head-Gordon Dispersion Correction
    Chai, J.-D.; Head-Gordon, M. (2010), J. Chem. Phys., 132: 6615-6620

        s6 =       1.000000


         ---------------------------------------------------------
                                   SCF
               by Justin Turney, Rob Parrish, Andy Simmonett
                          and Daniel G. A. Smith
                              UKS Reference
                        1 Threads,  15258 MiB Core
         ---------------------------------------------------------

  ==> Geometry <==

    Molecular point group: c2h
    Full point group: C2h

    Geometry (in Angstrom), charge = -2, multiplicity = 3:

       Center              X                  Y                   Z               Mass       
    ------------   -----------------  -----------------  -----------------  -----------------
         S            0.000000000000     1.059124547330     0.000000000000    31.972071174400
         S            0.000000000000    -1.059124547330     0.000000000000    31.972071174400
         S           -1.717527464316     2.240422064970     0.000000000000    31.972071174400
         S            1.717527464316    -2.240422064970     0.000000000000    31.972071174400

  Running in c2h symmetry.

  Rotational constants: A =      0.69403  B =      0.03026  C =      0.02900 [cm^-1]
  Rotational constants: A =  20806.40067  B =    907.26563  C =    869.35720 [MHz]
  Nuclear repulsion =  290.758603815686513

  Charge       = -2
  Multiplicity = 3
  Electrons    = 66
  Nalpha       = 34
  Nbeta        = 32

  ==> Algorithm <==

  SCF Algorithm Type is DF.
  DIIS enabled.
  MOM disabled.
  Fractional occupation disabled.
  Guess Type is READ.
  Energy threshold   = 1.00e-08
  Density threshold  = 1.00e-08
  Integral threshold = 0.00e+00

  ==> Primary Basis <==

  Basis Set: AUG-CC-PVTZ
    Blend: AUG-CC-PVTZ
    Number of shells: 64
    Number of basis function: 200
    Number of Cartesian functions: 236
    Spherical Harmonics?: true
    Max angular momentum: 3

  ==> DFT Potential <==

   => Composite Functional: WB97X-D <= 

    wB97X-D Hyb-GGA Exchange-Correlation Functional

    J.-D. Chai and M. Head-Gordon, Phys. Chem. Chem. Phys. 10, 6615 (2008)

    Deriv               =              1
    GGA                 =           TRUE
    Meta                =          FALSE

    Exchange Hybrid     =           TRUE
    MP2 Hybrid          =          FALSE

   => Exchange-Correlation Functionals <=

    1.0000   wB97D range-separated functional

   => Exact (HF) Exchange <=

    0.7780            HF,LR [omega = 0.2000]
    0.2220               HF 

   => Molecular Quadrature <=

    Radial Scheme          =       TREUTLER
    Pruning Scheme         =           NONE
    Nuclear Scheme         =       TREUTLER

    BS radius alpha        =              1
    Pruning alpha          =              1
    Radial Points          =             99
    Spherical Points       =            590
    Total Points           =         225998
    Total Blocks           =           1829
    Max Points             =            256
    Max Functions          =            200
    Weights Tolerance      =       1.00E-15

   => Loading Basis Set <=

    Name: (AUG-CC-PVTZ AUX)
    Role: JKFIT
    Keyword: DF_BASIS_SCF
    atoms 1-4 entry S          line   730 file /apps/gb/PSI4/1.4.0/share/psi4/basis/aug-cc-pvtz-jkfit.gbs 

   => Loading Basis Set <=

    Name: AUG-CC-PVTZ
    Role: ORBITAL
    Keyword: BASIS
    atoms 1-4 entry S          line   906 file /apps/gb/PSI4/1.4.0/share/psi4/basis/aug-cc-pvtz.gbs 

  Reading orbitals from file 180, no projection.

  ==> Pre-Iterations <==

   -------------------------------------------------------
    Irrep   Nso     Nmo     Nalpha   Nbeta   Ndocc  Nsocc
   -------------------------------------------------------
     Ag        66      66       0       0       0       0
     Bg        34      34       0       0       0       0
     Au        34      34       0       0       0       0
     Bu        66      66       0       0       0       0
   -------------------------------------------------------
    Total     200     200      34      32      32       2
   -------------------------------------------------------

  ==> Integral Setup <==

  ==> DiskDFJK: Density-Fitted J/K Matrices <==

    J tasked:                  Yes
    K tasked:                  Yes
    wK tasked:                 Yes
    Omega:               2.000E-01
    OpenMP threads:              1
    Integrals threads:           1
    Memory [MiB]:            10352
    Algorithm:                Core
    Integral Cache:           NONE
    Schwarz Cutoff:          1E-12
    Fitting Condition:       1E-10

   => Auxiliary Basis Set <=

  Basis Set: (AUG-CC-PVTZ AUX)
    Blend: AUG-CC-PVTZ-JKFIT
    Number of shells: 168
    Number of basis function: 584
    Number of Cartesian functions: 720
    Spherical Harmonics?: true
    Max angular momentum: 4

  Cached 100.0% of DFT collocation blocks in 1.066 [GiB].

  Minimum eigenvalue in the overlap matrix is 2.1074251213E-04.
  Using Symmetric Orthogonalization.

  SCF Guess: Orbitals guess was supplied from a previous computation.

  ==> Iterations <==

                           Total Energy        Delta E     RMS |[F,P]|

   @DF-UKS iter   0: -1592.81849589006151   -1.59282e+03   2.59936e-02 
    Occupation by irrep:
             Ag    Bg    Au    Bu 
    DOCC [    13,    3,    4,   12 ]
    SOCC [     0,    1,    0,    1 ]

   @DF-UKS iter   1: -1591.56128544920193    1.25721e+00   9.73065e-03 DIIS
   @DF-UKS iter   2: -1590.76995204939362    7.91333e-01   1.70626e-02 DIIS
   @DF-UKS iter   3: -1592.65015666951331   -1.88020e+00   3.88567e-03 DIIS
   @DF-UKS iter   4: -1592.74475470054699   -9.45980e-02   1.91814e-03 DIIS
   @DF-UKS iter   5: -1592.77336540420720   -2.86107e-02   3.20241e-04 DIIS
   @DF-UKS iter   6: -1592.77527140105781   -1.90600e-03   9.21600e-05 DIIS
   @DF-UKS iter   7: -1592.77552233762253   -2.50937e-04   5.03397e-05 DIIS
   @DF-UKS iter   8: -1592.77560796461762   -8.56270e-05   1.99487e-05 DIIS
   @DF-UKS iter   9: -1592.77562976281001   -2.17982e-05   7.13904e-06 DIIS
   @DF-UKS iter  10: -1592.77563217472857   -2.41192e-06   2.75925e-06 DIIS
   @DF-UKS iter  11: -1592.77563243700433   -2.62276e-07   6.84273e-07 DIIS
   @DF-UKS iter  12: -1592.77563245989995   -2.28956e-08   2.83065e-07 DIIS
   @DF-UKS iter  13: -1592.77563246434306   -4.44311e-09   1.02241e-07 DIIS
   @DF-UKS iter  14: -1592.77563246506497   -7.21911e-10   3.75597e-08 DIIS
   @DF-UKS iter  15: -1592.77563246514183   -7.68523e-11   1.58589e-08 DIIS
   @DF-UKS iter  16: -1592.77563246515410   -1.22782e-11   7.24493e-09 DIIS
  Energy and wave function converged.


  ==> Post-Iterations <==

   @Spin Contamination Metric:   2.144685021E-02
   @S^2 Expected:                2.000000000E+00
   @S^2 Observed:                2.021446850E+00
   @S   Expected:                1.000000000E+00
   @S   Observed:                1.000000000E+00

    Orbital Energies [Eh]
    ---------------------

    Alpha Occupied:                                                       

       1Bu   -88.773974     1Ag   -88.773971     2Bu   -88.710311  
       2Ag   -88.710310     3Ag    -7.778016     3Bu    -7.777965  
       4Bu    -7.717863     4Ag    -7.717862     5Ag    -5.727296  
       5Bu    -5.727139     1Bg    -5.723723     1Au    -5.723720  
       6Ag    -5.722180     6Bu    -5.722145     7Bu    -5.669127  
       7Ag    -5.669127     2Bg    -5.662186     2Au    -5.662185  
       8Ag    -5.660617     8Bu    -5.660616     9Ag    -0.587461  
       9Bu    -0.519590    10Ag    -0.420867    10Bu    -0.342660  
      11Ag    -0.171535    11Bu    -0.138488     3Au    -0.128049  
      12Ag    -0.077415     3Bg    -0.067889    12Bu    -0.022261  
       4Au     0.008049    13Ag     0.015576     4Bg     0.046794  
      13Bu     0.095304  

    Alpha Virtual:                                                        

      14Bu     0.256808    14Ag     0.264641    15Bu     0.286186  
      15Ag     0.305156     5Au     0.320687    16Ag     0.323661  
       5Bg     0.326768    16Bu     0.335413     6Bg     0.350089  
      17Bu     0.355337     6Au     0.361710    17Ag     0.368829  
      18Ag     0.378840    18Bu     0.389211    19Ag     0.397391  
      20Ag     0.456637    19Bu     0.457289    20Bu     0.462308  
       7Au     0.493429     7Bg     0.499567    21Bu     0.521150  
      21Ag     0.532681    22Ag     0.552926     8Bg     0.554427  
       8Au     0.568139    22Bu     0.585525    23Bu     0.587341  
      23Ag     0.590395     9Au     0.595789    24Ag     0.605462  
      24Bu     0.614157     9Bg     0.624357    25Ag     0.656493  
      10Au     0.664619    25Bu     0.672493    10Bg     0.683294  
      26Bu     0.699449    26Ag     0.720096    11Au     0.757828  
      27Bu     0.819542    11Bg     0.823974    27Ag     0.836151  
      12Au     0.845208    28Ag     0.847628    12Bg     0.869306  
      29Ag     0.871416    28Bu     0.875767    30Ag     0.884845  
      29Bu     0.884965    13Au     0.892439    30Bu     0.905403  
      14Au     0.913672    13Bg     0.925928    31Bu     0.928337  
      31Ag     0.928542    32Ag     0.949490    14Bg     0.951022  
      15Au     0.966399    32Bu     0.973181    33Ag     0.975753  
      34Ag     0.994843    15Bg     1.001277    33Bu     1.010708  
      34Bu     1.032946    35Ag     1.033613    16Au     1.054927  
      16Bg     1.066389    36Ag     1.071657    17Bg     1.091646  
      17Au     1.092487    35Bu     1.094042    36Bu     1.133340  
      37Ag     1.141971    18Bg     1.150800    18Au     1.163446  
      37Bu     1.165301    38Ag     1.168527    38Bu     1.183675  
      39Ag     1.259160    19Au     1.265872    39Bu     1.292296  
      19Bg     1.311655    40Ag     1.337407    20Bg     1.366084  
      40Bu     1.371508    20Au     1.380131    41Ag     1.402910  
      41Bu     1.409338    21Au     1.457209    42Ag     1.479471  
      42Bu     1.504583    43Ag     1.528902    21Bg     1.546947  
      43Bu     1.557648    22Bg     1.567722    22Au     1.613337  
      44Ag     1.650041    44Bu     1.707879    45Ag     1.718999  
      45Bu     1.721507    46Ag     1.852768    46Bu     1.878587  
      23Au     2.150126    47Ag     2.153868    23Bg     2.161411  
      47Bu     2.166103    24Bg     2.199532    48Ag     2.202703  
      48Bu     2.219280    24Au     2.228492    25Au     2.230942  
      49Bu     2.268521    25Bg     2.281801    50Bu     2.294864  
      49Ag     2.297131    26Au     2.307092    50Ag     2.326424  
      27Au     2.347632    51Bu     2.354323    51Ag     2.360423  
      26Bg     2.369733    28Au     2.388443    52Bu     2.392886  
      27Bg     2.395728    52Ag     2.400737    29Au     2.417279  
      53Ag     2.422510    53Bu     2.425878    28Bg     2.446821  
      54Ag     2.469702    54Bu     2.495974    29Bg     2.508872  
      55Bu     2.512706    30Au     2.519642    55Ag     2.520196  
      31Au     2.527661    56Bu     2.541317    56Ag     2.562143  
      30Bg     2.592981    57Bu     2.596446    32Au     2.607976  
      57Ag     2.612939    31Bg     2.627450    33Au     2.675016  
      32Bg     2.680120    58Bu     2.680691    58Ag     2.711020  
      59Ag     2.743762    59Bu     2.752391    60Ag     2.779938  
      60Bu     2.789486    61Bu     2.819789    61Ag     2.821287  
      62Ag     2.830002    33Bg     2.839713    34Bg     2.905115  
      34Au     2.910752    62Bu     2.966931    63Ag     3.077654  
      63Bu     3.949352    64Ag     3.971107    64Bu     3.990881  
      65Ag     5.198535    65Bu     5.413012    66Ag     6.020593  
      66Bu     6.096965  

    Beta Occupied:                                                        

       1Bu   -88.770048     1Ag   -88.770046     2Bu   -88.708061  
       2Ag   -88.708061     3Ag    -7.773693     3Bu    -7.773630  
       4Ag    -7.715457     4Bu    -7.715457     5Ag    -5.725051  
       5Bu    -5.724914     6Ag    -5.716407     6Bu    -5.716357  
       1Au    -5.714485     1Bg    -5.714473     7Bu    -5.664806  
       7Ag    -5.664806     8Bu    -5.658269     8Ag    -5.658269  
       2Bg    -5.658142     2Au    -5.658142     9Ag    -0.562763  
       9Bu    -0.499193    10Ag    -0.400141    10Bu    -0.314358  
      11Ag    -0.153832    11Bu    -0.116398     3Au    -0.092692  
      12Ag    -0.054905     3Bg    -0.034936    12Bu    -0.013250  
      13Ag     0.029461     4Au     0.049784  

    Beta Virtual:                                                         

       4Bg     0.243350    13Bu     0.252668    14Ag     0.273754  
      14Bu     0.287426    15Bu     0.302459    15Ag     0.306701  
       5Au     0.321044    16Ag     0.323266     5Bg     0.330550  
      16Bu     0.341797     6Bg     0.353185    17Bu     0.354737  
       6Au     0.363285    17Ag     0.377105    18Ag     0.393908  
      18Bu     0.396580    19Ag     0.399527    19Bu     0.458653  
      20Ag     0.460483    20Bu     0.467327     7Au     0.497713  
       7Bg     0.504732    21Bu     0.523794    21Ag     0.539354  
       8Bg     0.557035    22Ag     0.559900     8Au     0.574681  
      22Bu     0.588375    23Bu     0.592496    23Ag     0.596876  
       9Au     0.602948    24Ag     0.610016    24Bu     0.619481  
       9Bg     0.633126    25Ag     0.658462    10Au     0.670735  
      25Bu     0.673285    10Bg     0.685913    26Bu     0.701277  
      26Ag     0.723811    11Au     0.765152    27Bu     0.825238  
      11Bg     0.828175    27Ag     0.838359    12Au     0.850151  
      28Ag     0.850511    29Ag     0.877111    28Bu     0.879099  
      12Bg     0.879345    30Ag     0.888212    29Bu     0.891570  
      13Au     0.899998    30Bu     0.915644    14Au     0.925025  
      13Bg     0.932007    31Ag     0.933052    31Bu     0.933199  
      32Ag     0.958413    14Bg     0.959496    15Au     0.973882  
      32Bu     0.980828    33Ag     0.985323    34Ag     1.004859  
      15Bg     1.018473    33Bu     1.023518    35Ag     1.039230  
      34Bu     1.039909    16Au     1.070692    16Bg     1.073871  
      36Ag     1.084574    17Au     1.094627    35Bu     1.095822  
      17Bg     1.100890    36Bu     1.137554    37Ag     1.144540  
      18Bg     1.153640    18Au     1.167680    37Bu     1.173282  
      38Ag     1.175012    38Bu     1.193845    39Ag     1.264558  
      19Au     1.270854    39Bu     1.297236    19Bg     1.316610  
      40Ag     1.341729    20Bg     1.370534    40Bu     1.374536  
      20Au     1.384103    41Ag     1.408397    41Bu     1.413998  
      21Au     1.463733    42Ag     1.485121    42Bu     1.510952  
      43Ag     1.533915    21Bg     1.556028    43Bu     1.563260  
      22Bg     1.575132    22Au     1.618185    44Ag     1.658835  
      44Bu     1.715593    45Ag     1.723729    45Bu     1.729079  
      46Ag     1.866782    46Bu     1.889991    23Au     2.165177  
      47Ag     2.167481    23Bg     2.176455    47Bu     2.177165  
      24Bg     2.208137    48Ag     2.211699    48Bu     2.232455  
      24Au     2.242093    25Au     2.243900    49Bu     2.275374  
      25Bg     2.296118    50Bu     2.304527    49Ag     2.305612  
      26Au     2.320248    50Ag     2.335277    27Au     2.362291  
      51Bu     2.364663    51Ag     2.369796    26Bg     2.381372  
      52Bu     2.398979    28Au     2.402571    27Bg     2.407853  
      52Ag     2.411284    53Ag     2.432839    29Au     2.435229  
      53Bu     2.435629    28Bg     2.464103    54Ag     2.477385  
      54Bu     2.504760    29Bg     2.517409    55Bu     2.523217  
      55Ag     2.528900    30Au     2.529759    31Au     2.538597  
      56Bu     2.552207    56Ag     2.577305    30Bg     2.611412  
      57Bu     2.612680    32Au     2.623396    57Ag     2.623481  
      31Bg     2.643418    33Au     2.690858    32Bg     2.694882  
      58Bu     2.695066    58Ag     2.719584    59Ag     2.756840  
      59Bu     2.762957    60Ag     2.790515    60Bu     2.798843  
      61Bu     2.830453    61Ag     2.831861    62Ag     2.840445  
      33Bg     2.855039    34Bg     2.921149    34Au     2.924488  
      62Bu     2.974833    63Ag     3.086740    63Bu     3.963379  
      64Ag     3.980726    64Bu     3.999789    65Ag     5.206525  
      65Bu     5.417880    66Ag     6.027644    66Bu     6.103859  

    Final Occupation by Irrep:
             Ag    Bg    Au    Bu 
    DOCC [    13,    3,    4,   12 ]
    SOCC [     0,    1,    0,    1 ]

  @DF-UKS Final Energy: -1592.77563246515410

   => Energetics <=

    Nuclear Repulsion Energy =            290.7586038156865129
    One-Electron Energy =               -2802.3760703040788940
    Two-Electron Energy =                 994.0329295995735492
    DFT Exchange-Correlation Energy =     -75.1904180625563896
    Empirical Dispersion Energy =          -0.0006775137787644
    VV10 Nonlocal Energy =                  0.0000000000000000
    Total Energy =                      -1592.7756324651541036

  UHF NO Occupations:
  HONO-2 :   13 Ag 1.9947367
  HONO-1 :   13 Bu 1.0000000
  HONO-0 :    4 Bg 1.0000000
  LUNO+0 :   14 Ag 0.0052633
  LUNO+1 :    5 Au 0.0018419
  LUNO+2 :   14 Bu 0.0014240
  LUNO+3 :    5 Bg 0.0006963


Computation Completed


Properties will be evaluated at   0.000000,   0.000000,   0.000000 [a0]

Properties computed using the SCF density matrix

  Nuclear Dipole Moment: [e a0]
     X:     0.0000      Y:     0.0000      Z:     0.0000

  Electronic Dipole Moment: [e a0]
     X:     0.0000      Y:     0.0000      Z:     0.0000

  Dipole Moment: [e a0]
     X:     0.0000      Y:     0.0000      Z:     0.0000     Total:     0.0000

  Dipole Moment: [D]
     X:     0.0000      Y:     0.0000      Z:     0.0000     Total:     0.0000


*** tstop() called on d4-10.compute.lan at Thu Feb 11 14:14:56 2021
Module time:
	user time   =     209.43 seconds =       3.49 minutes
	system time =       0.91 seconds =       0.02 minutes
	total time  =        210 seconds =       3.50 minutes
Total time:
	user time   =     781.36 seconds =      13.02 minutes
	system time =       3.78 seconds =       0.06 minutes
	total time  =        786 seconds =      13.10 minutes

*** tstart() called on d4-10.compute.lan
*** at Thu Feb 11 14:14:56 2021


         ------------------------------------------------------------
                                   SCF GRAD                          
                          Rob Parrish, Justin Turney,                
                       Andy Simmonett, and Alex Sokolov              
         ------------------------------------------------------------

  ==> Geometry <==

    Molecular point group: c2h
    Full point group: C2h

    Geometry (in Angstrom), charge = -2, multiplicity = 3:

       Center              X                  Y                   Z               Mass       
    ------------   -----------------  -----------------  -----------------  -----------------
         S            0.000000000000     1.059124547330     0.000000000000    31.972071174400
         S            0.000000000000    -1.059124547330     0.000000000000    31.972071174400
         S           -1.717527464316     2.240422064970     0.000000000000    31.972071174400
         S            1.717527464316    -2.240422064970     0.000000000000    31.972071174400

  Nuclear repulsion =  290.758603815686513

  ==> Basis Set <==

  Basis Set: AUG-CC-PVTZ
    Blend: AUG-CC-PVTZ
    Number of shells: 64
    Number of basis function: 200
    Number of Cartesian functions: 236
    Spherical Harmonics?: true
    Max angular momentum: 3

  ==> DFJKGrad: Density-Fitted SCF Gradients <==

    Gradient:                    1
    J tasked:                  Yes
    K tasked:                  Yes
    wK tasked:                 Yes
    Omega:               2.000E-01
    OpenMP threads:              1
    Integrals threads:           1
    Memory [MiB]:            11444
    Schwarz Cutoff:          0E+00
    Fitting Condition:       1E-10

   => Auxiliary Basis Set <=

  Basis Set: (AUG-CC-PVTZ AUX)
    Blend: AUG-CC-PVTZ-JKFIT
    Number of shells: 168
    Number of basis function: 584
    Number of Cartesian functions: 720
    Spherical Harmonics?: true
    Max angular momentum: 4

  ==> DFT Potential <==

   => Composite Functional: WB97X-D <= 

    wB97X-D Hyb-GGA Exchange-Correlation Functional

    J.-D. Chai and M. Head-Gordon, Phys. Chem. Chem. Phys. 10, 6615 (2008)

    Deriv               =              1
    GGA                 =           TRUE
    Meta                =          FALSE

    Exchange Hybrid     =           TRUE
    MP2 Hybrid          =          FALSE

   => Exchange-Correlation Functionals <=

    1.0000   wB97D range-separated functional

   => Exact (HF) Exchange <=

    0.7780            HF,LR [omega = 0.2000]
    0.2220               HF 

   => Molecular Quadrature <=

    Radial Scheme          =       TREUTLER
    Pruning Scheme         =           NONE
    Nuclear Scheme         =       TREUTLER

    BS radius alpha        =              1
    Pruning alpha          =              1
    Radial Points          =             99
    Spherical Points       =            590
    Total Points           =         225998
    Total Blocks           =           1829
    Max Points             =            256
    Max Functions          =            200
    Weights Tolerance      =       1.00E-15


  -Total Gradient:
     Atom            X                  Y                   Z
    ------   -----------------  -----------------  -----------------
       1        0.000236480577    -0.011870497703     0.000000000000
       2       -0.000236480577     0.011870497703     0.000000000000
       3        0.008997144135    -0.011906476979     0.000000000000
       4       -0.008997144135     0.011906476979     0.000000000000


*** tstop() called on d4-10.compute.lan at Thu Feb 11 14:15:36 2021
Module time:
	user time   =      40.36 seconds =       0.67 minutes
	system time =       0.18 seconds =       0.00 minutes
	total time  =         40 seconds =       0.67 minutes
Total time:
	user time   =     821.72 seconds =      13.70 minutes
	system time =       3.96 seconds =       0.07 minutes
	total time  =        826 seconds =      13.77 minutes

			-----------------------------------------
			 OPTKING 2.0: for geometry optimizations 
			  - R.A. King,  Bethel University        
			-----------------------------------------

	Previous internal coordinate definitions found.
	---Fragment 1 Geometry and Gradient---
	 S           0.0000000000        2.0014553272        0.0000000000
	 S           0.0000000000       -2.0014553272        0.0000000000
	 S          -3.2456565205        4.2337841082        0.0000000000
	 S           3.2456565205       -4.2337841082        0.0000000000
	             0.0002364806       -0.0118704977        0.0000000000
	            -0.0002364806        0.0118704977        0.0000000000
	             0.0089971441       -0.0119064770        0.0000000000
	            -0.0089971441        0.0119064770        0.0000000000

	---Fragment 1 Intrafragment Coordinates---
	 - Coordinate -           - BOHR/RAD -       - ANG/DEG -
	 R(1,2)           =         4.002911	       2.118249
	 R(1,3)           =         3.939236	       2.084554
	 R(2,4)           =         3.939236	       2.084554
	 B(1,2,4)         =         2.173280	     124.519789
	 B(2,1,3)         =         2.173280	     124.519789
	 D(3,1,2,4)       =         3.141593	     180.000000

[...]
      68App    2.931128   124Ap     2.953897   125Ap     2.992851  
     126Ap     3.024623   127Ap     3.992822   128Ap     4.037504  
     129Ap     4.898483   130Ap     5.348796   131Ap     5.839710  
     132Ap     6.020170  

    Beta Occupied:                                                        

       1Ap   -88.753595     2Ap   -88.753561     3Ap   -88.723735  
       4Ap   -88.723692     5Ap    -7.757804     6Ap    -7.757762  
       7Ap    -7.730596     8Ap    -7.730544     9Ap    -5.707904  
      10Ap    -5.707866    11Ap    -5.699548    12Ap    -5.699506  
       1App   -5.699419     2App   -5.699380    13Ap    -5.680913  
      14Ap    -5.680863     3App   -5.673072     4App   -5.673020  
      15Ap    -5.672962    16Ap    -5.672909    17Ap    -0.531425  
      18Ap    -0.518472    19Ap    -0.364732    20Ap    -0.326913  
      21Ap    -0.127230    22Ap    -0.098704     5App   -0.071027  
      23Ap    -0.065625     6App   -0.050242    24Ap    -0.038364  
      25Ap     0.055141     7App    0.069977  

    Beta Virtual:                                                         

       8App    0.224370    26Ap     0.243646    27Ap     0.258604  
      28Ap     0.266174    29Ap     0.296181    30Ap     0.308947  
       9App    0.319239    31Ap     0.322579    10App    0.325234  
      32Ap     0.335929    33Ap     0.352547    11App    0.357143  
      12App    0.362849    34Ap     0.381280    35Ap     0.381535  
      36Ap     0.389061    37Ap     0.395565    38Ap     0.451763  
      39Ap     0.463052    40Ap     0.469941    13App    0.491213  
      14App    0.506099    41Ap     0.511093    42Ap     0.525206  
      15App    0.548445    16App    0.559205    43Ap     0.560760  
      44Ap     0.579945    45Ap     0.592599    46Ap     0.596448  
      17App    0.598640    47Ap     0.614578    48Ap     0.617947  
      18App    0.627888    49Ap     0.655105    19App    0.661431  
      50Ap     0.667518    51Ap     0.689432    20App    0.693923  
      52Ap     0.716733    21App    0.766411    22App    0.804666  
      53Ap     0.807233    54Ap     0.822222    55Ap     0.844822  
      23App    0.866070    56Ap     0.873071    57Ap     0.873227  
      24App    0.874685    58Ap     0.888176    59Ap     0.892535  
      25App    0.901799    60Ap     0.913353    26App    0.917658  
      61Ap     0.923204    27App    0.930501    62Ap     0.933771  
      63Ap     0.950655    28App    0.952066    64Ap     0.971231  
      29App    0.978575    65Ap     0.990838    66Ap     1.000632  
      67Ap     1.006999    68Ap     1.019849    30App    1.026351  
      69Ap     1.027662    31App    1.054328    32App    1.057830  
      70Ap     1.063418    33App    1.072247    71Ap     1.074514  
      34App    1.083508    72Ap     1.111636    73Ap     1.114379  
      74Ap     1.127443    35App    1.135997    36App    1.138170  
      75Ap     1.170870    76Ap     1.172168    77Ap     1.207288  
      37App    1.225108    78Ap     1.246130    38App    1.267015  
      79Ap     1.277148    80Ap     1.335528    39App    1.347749  
      40App    1.348409    81Ap     1.380939    82Ap     1.409393  
      41App    1.431697    83Ap     1.441301    84Ap     1.445819  
      85Ap     1.500036    86Ap     1.510260    42App    1.531683  
      43App    1.561047    44App    1.580798    87Ap     1.611836  
      88Ap     1.635789    89Ap     1.698148    90Ap     1.730985  
      91Ap     1.851668    92Ap     1.879192    45App    2.128471  
      93Ap     2.144912    46App    2.166462    94Ap     2.175291  
      47App    2.205822    95Ap     2.205928    96Ap     2.209276  
      48App    2.217218    97Ap     2.223250    49App    2.231935  
      98Ap     2.252463    50App    2.282704    99Ap     2.285498  
     100Ap     2.304960   101Ap     2.310843    51App    2.322908  
     102Ap     2.363854    52App    2.373065   103Ap     2.373411  
      53App    2.373620    54App    2.380015   104Ap     2.427840  
      55App    2.431926   105Ap     2.431983   106Ap     2.441970  
     107Ap     2.444997    56App    2.460705    57App    2.470348  
      58App    2.479169   108Ap     2.482726    59App    2.490842  
     109Ap     2.491239   110Ap     2.496509    60App    2.515540  
     111Ap     2.532798   112Ap     2.553854    61App    2.573175  
     113Ap     2.578198   114Ap     2.616318   115Ap     2.618078  
      62App    2.623621    63App    2.651749    64App    2.652780  
     116Ap     2.663776    65App    2.677074   117Ap     2.715434  
      66App    2.731190   118Ap     2.763903   119Ap     2.764358  
     120Ap     2.813999   121Ap     2.829840   122Ap     2.862121  
     123Ap     2.879129    67App    2.940641    68App    2.942745  
     124Ap     2.965301   125Ap     3.005096   126Ap     3.037686  
     127Ap     3.998753   128Ap     4.043552   129Ap     4.908403  
     130Ap     5.354534   131Ap     5.846347   132Ap     6.028452  

    Final Occupation by Irrep:
             Ap   App 
    DOCC [    25,    7 ]
    SOCC [     1,    1 ]

  @DF-UKS Final Energy: -1592.78649368473862

   => Energetics <=

    Nuclear Repulsion Energy =            268.8144705391396769
    One-Electron Energy =               -2758.6435984777299382
    Two-Electron Energy =                 972.1938076985824182
    DFT Exchange-Correlation Energy =     -75.1505214728422004
    Empirical Dispersion Energy =          -0.0006519718886464
    VV10 Nonlocal Energy =                  0.0000000000000000
    Total Energy =                      -1592.7864936847386161

  UHF NO Occupations:
  HONO-2 :   25 Ap 1.9946334
  HONO-1 :   26 Ap 1.0000000
  HONO-0 :    8App 1.0000000
  LUNO+0 :   27 Ap 0.0053666
  LUNO+1 :    9App 0.0030614
  LUNO+2 :   28 Ap 0.0012565
  LUNO+3 :   10App 0.0007191


Computation Completed


Properties will be evaluated at   0.000000,   0.000000,   0.000000 [a0]

Properties computed using the SCF density matrix

  Nuclear Dipole Moment: [e a0]
     X:     0.0000      Y:    -0.0000      Z:     0.0000

  Electronic Dipole Moment: [e a0]
     X:     0.0009      Y:    -0.0024      Z:     0.0000

  Dipole Moment: [e a0]
     X:     0.0009      Y:    -0.0024      Z:     0.0000     Total:     0.0025

  Dipole Moment: [D]
     X:     0.0022      Y:    -0.0061      Z:     0.0000     Total:     0.0065


*** tstop() called on d4-10.compute.lan at Thu Feb 11 15:36:38 2021
Module time:
	user time   =     227.31 seconds =       3.79 minutes
	system time =       1.10 seconds =       0.02 minutes
	total time  =        229 seconds =       3.82 minutes
Total time:
	user time   =    5659.72 seconds =      94.33 minutes
	system time =      25.90 seconds =       0.43 minutes
	total time  =       5688 seconds =      94.80 minutes

*** tstart() called on d4-10.compute.lan
*** at Thu Feb 11 15:36:38 2021


         ------------------------------------------------------------
                                   SCF GRAD                          
                          Rob Parrish, Justin Turney,                
                       Andy Simmonett, and Alex Sokolov              
         ------------------------------------------------------------

  ==> Geometry <==

    Molecular point group: cs
    Full point group: Cs

    Geometry (in Angstrom), charge = -2, multiplicity = 3:

       Center              X                  Y                   Z               Mass       
    ------------   -----------------  -----------------  -----------------  -----------------
         S            0.000000000000     1.340249503093     0.000000000000    31.972071174400
         S            0.000000000000    -1.340717438331     0.000000000000    31.972071174400
         S           -1.615262093865     2.595894590904     0.000000000000    31.972071174400
         S            1.615262093865    -2.595426655665     0.000000000000    31.972071174400

  Nuclear repulsion =  268.814470539139677

  ==> Basis Set <==

  Basis Set: AUG-CC-PVTZ
    Blend: AUG-CC-PVTZ
    Number of shells: 64
    Number of basis function: 200
    Number of Cartesian functions: 236
    Spherical Harmonics?: true
    Max angular momentum: 3

  ==> DFJKGrad: Density-Fitted SCF Gradients <==

    Gradient:                    1
    J tasked:                  Yes
    K tasked:                  Yes
    wK tasked:                 Yes
    Omega:               2.000E-01
    OpenMP threads:              1
    Integrals threads:           1
    Memory [MiB]:            11444
    Schwarz Cutoff:          0E+00
    Fitting Condition:       1E-10

   => Auxiliary Basis Set <=

  Basis Set: (AUG-CC-PVTZ AUX)
    Blend: AUG-CC-PVTZ-JKFIT
    Number of shells: 168
    Number of basis function: 584
    Number of Cartesian functions: 720
    Spherical Harmonics?: true
    Max angular momentum: 4

  ==> DFT Potential <==

   => Composite Functional: WB97X-D <= 

    wB97X-D Hyb-GGA Exchange-Correlation Functional

    J.-D. Chai and M. Head-Gordon, Phys. Chem. Chem. Phys. 10, 6615 (2008)

    Deriv               =              1
    GGA                 =           TRUE
    Meta                =          FALSE

    Exchange Hybrid     =           TRUE
    MP2 Hybrid          =          FALSE

   => Exchange-Correlation Functionals <=

    1.0000   wB97D range-separated functional

   => Exact (HF) Exchange <=

    0.7780            HF,LR [omega = 0.2000]
    0.2220               HF 

   => Molecular Quadrature <=

    Radial Scheme          =       TREUTLER
    Pruning Scheme         =           NONE
    Nuclear Scheme         =       TREUTLER

    BS radius alpha        =              1
    Pruning alpha          =              1
    Radial Points          =             99
    Spherical Points       =            590
    Total Points           =         226205
    Total Blocks           =           1819
    Max Points             =            256
    Max Functions          =            200
    Weights Tolerance      =       1.00E-15


  -Total Gradient:
     Atom            X                  Y                   Z
    ------   -----------------  -----------------  -----------------
       1        0.000063223045    -0.000048443924     0.000000000000
       2        0.000064211435    -0.000048813511     0.000000000000
       3       -0.000064286842     0.000048223028     0.000000000000
       4       -0.000063154796     0.000049188576     0.000000000000


*** tstop() called on d4-10.compute.lan at Thu Feb 11 15:37:18 2021
Module time:
	user time   =      39.62 seconds =       0.66 minutes
	system time =       0.19 seconds =       0.00 minutes
	total time  =         40 seconds =       0.67 minutes
Total time:
	user time   =    5699.34 seconds =      94.99 minutes
	system time =      26.09 seconds =       0.43 minutes
	total time  =       5728 seconds =      95.47 minutes

         ----------------------------------------------------------
                                   FINDIF
                     R. A. King and Jonathon Misiewicz
         ---------------------------------------------------------

  Computing second-derivative from gradients using projected, 
  symmetry-adapted, cartesian coordinates.

  10 gradients passed in, including the reference geometry.
  Generating complete list of displacements from unique ones.

    Operation 3 takes plus displacements of irrep Au to minus ones.
    Operation 2 takes plus displacements of irrep Bu to minus ones.

-------------------------------------------------------------


  ==> Harmonic Vibrational Analysis <==

  non-mass-weighted Hessian:       Symmetric? True   Hermitian? True   Lin Dep Dim?  6 (0)
  projection of translations (True) and rotations (True) removed 6 degrees of freedom (6)
  total projector:                 Symmetric? True   Hermitian? True   Lin Dep Dim?  6 (6)
  mass-weighted Hessian:           Symmetric? True   Hermitian? True   Lin Dep Dim?  6 (0)
  pre-proj  low-frequency mode:    0.0000i [cm^-1]
  pre-proj  low-frequency mode:    0.0000i [cm^-1]
  pre-proj  low-frequency mode:    0.0000i [cm^-1]
  pre-proj  low-frequency mode:    0.0000  [cm^-1]
  pre-proj  low-frequency mode:    0.0000  [cm^-1]
  pre-proj  low-frequency mode:    0.0000  [cm^-1]
  pre-proj  low-frequency mode:   49.0432  [cm^-1]
  pre-proj  low-frequency mode:   61.0914  [cm^-1]
  pre-proj  all modes:['0.0000i' '0.0000i' '0.0000i' '0.0000' '0.0000' '0.0000' '49.0432'
 '61.0914' '103.1215' '136.4330' '501.3543' '526.7713']
  projected mass-weighted Hessian: Symmetric? True   Hermitian? True   Lin Dep Dim?  6 (6)
  post-proj low-frequency mode:    0.0000i [cm^-1] (TR)
  post-proj low-frequency mode:    0.0000i [cm^-1] (TR)
  post-proj low-frequency mode:    0.0000  [cm^-1] (TR)
  post-proj low-frequency mode:    0.0000  [cm^-1] (TR)
  post-proj low-frequency mode:    0.0000  [cm^-1] (TR)
  post-proj low-frequency mode:    0.0000  [cm^-1] (TR)
  post-proj low-frequency mode:   49.0432  [cm^-1] (V)
  post-proj low-frequency mode:   61.0914  [cm^-1] (V)
  post-proj  all modes:['0.0000i' '0.0000i' '0.0000' '0.0000' '0.0000' '0.0000' '49.0432'
 '61.0914' '103.1215' '136.4330' '501.3543' '526.7713']

  Vibration                       7                   8                   9           
  Freq [cm^-1]                 49.0432             61.0914             103.1215       
  Irrep                           Bu                  Au                  Ag          
  Reduced mass [u]             31.9721             31.9721             31.9721        
  Force const [mDyne/A]         0.0453              0.0703              0.2003        
  Turning point v=0 [a0]        0.2771              0.2483              0.1911        
  RMS dev v=0 [a0 u^1/2]        1.1079              0.9927              0.7641        
  Char temp [K]                70.5623             87.8970             148.3689       
  ----------------------------------------------------------------------------------
      1   S                0.30  0.40 -0.00    0.00 -0.00  0.50   -0.29  0.37  0.00   
      2   S                0.30  0.40  0.00   -0.00  0.00  0.50    0.29 -0.37  0.00   
      3   S               -0.30 -0.40 -0.00    0.00  0.00 -0.50   -0.16  0.50 -0.00   
      4   S               -0.30 -0.40 -0.00   -0.00  0.00 -0.50    0.16 -0.50 -0.00   

  Vibration                       10                  11                  12          
  Freq [cm^-1]                 136.4330            501.3543            526.7713       
  Irrep                           Ag                  Bu                  Ag          
  Reduced mass [u]             31.9721             31.9721             31.9721        
  Force const [mDyne/A]         0.3506              4.7349              5.2272        
  Turning point v=0 [a0]        0.1661              0.0867              0.0846        
  RMS dev v=0 [a0 u^1/2]        0.6643              0.3465              0.3381        
  Char temp [K]                196.2967            721.3372            757.9066       
  ----------------------------------------------------------------------------------
      1   S                0.39  0.55  0.00    0.40 -0.30 -0.00    0.43 -0.25 -0.00   
      2   S               -0.39 -0.55  0.00    0.40 -0.30 -0.00   -0.43  0.25  0.00   
      3   S               -0.08 -0.20  0.00   -0.40  0.30 -0.00   -0.41  0.30  0.00   
      4   S                0.08  0.20 -0.00   -0.40  0.30  0.00    0.41 -0.30 -0.00   

  ==> Thermochemistry Components <==

  Entropy, S
    Electronic S            2.183 [cal/(mol K)]        9.134 [J/(mol K)]       0.00347910 [mEh/K] (multiplicity = 3)
    Translational S        40.451 [cal/(mol K)]      169.248 [J/(mol K)]       0.06446314 [mEh/K] (mol. weight = 127.8883 [u], P = 101325.00 [Pa])
    Rotational S           26.544 [cal/(mol K)]      111.062 [J/(mol K)]       0.04230126 [mEh/K] (symmetry no. = 2)
    Vibrational S          16.774 [cal/(mol K)]       70.183 [J/(mol K)]       0.02673132 [mEh/K]
  Total S                  85.953 [cal/(mol K)]      359.627 [J/(mol K)]       0.13697481 [mEh/K]
  Correction S              0.000 [cal/(mol K)]        0.000 [J/(mol K)]       0.00000000 [mEh/K]

  Constant volume heat capacity, Cv
    Electronic Cv           0.000 [cal/(mol K)]        0.000 [J/(mol K)]       0.00000000 [mEh/K]
    Translational Cv        2.981 [cal/(mol K)]       12.472 [J/(mol K)]       0.00475022 [mEh/K]
    Rotational Cv           2.981 [cal/(mol K)]       12.472 [J/(mol K)]       0.00475022 [mEh/K]
    Vibrational Cv         10.252 [cal/(mol K)]       42.895 [J/(mol K)]       0.01633796 [mEh/K]
  Total Cv                 16.214 [cal/(mol K)]       67.839 [J/(mol K)]       0.02583839 [mEh/K]
  Correction Cv             0.000 [cal/(mol K)]        0.000 [J/(mol K)]       0.00000000 [mEh/K]

  Constant pressure heat capacity, Cp
    Electronic Cp           0.000 [cal/(mol K)]        0.000 [J/(mol K)]       0.00000000 [mEh/K]
    Translational Cp        4.968 [cal/(mol K)]       20.786 [J/(mol K)]       0.00791703 [mEh/K]
    Rotational Cp           2.981 [cal/(mol K)]       12.472 [J/(mol K)]       0.00475022 [mEh/K]
    Vibrational Cp         10.252 [cal/(mol K)]       42.895 [J/(mol K)]       0.01633796 [mEh/K]
  Total Cp                 18.201 [cal/(mol K)]       76.153 [J/(mol K)]       0.02900520 [mEh/K]
  Correction Cp             0.000 [cal/(mol K)]        0.000 [J/(mol K)]       0.00000000 [mEh/K]

  ==> Thermochemistry Energy Analysis <==

  Raw electronic energy, E0
  Total E0, Electronic energy at well bottom at 0 [K]                -1592.78649373 [Eh]

  Zero-point energy, ZPE_vib = Sum_i nu_i / 2
    Electronic ZPE          0.000 [kcal/mol]        0.000 [kJ/mol]       0.00000000 [Eh]
    Translational ZPE       0.000 [kcal/mol]        0.000 [kJ/mol]       0.00000000 [Eh]
    Rotational ZPE          0.000 [kcal/mol]        0.000 [kJ/mol]       0.00000000 [Eh]
    Vibrational ZPE         1.970 [kcal/mol]        8.241 [kJ/mol]       0.00313889 [Eh]         688.907 [cm^-1]
  Correction ZPE            1.970 [kcal/mol]        8.241 [kJ/mol]       0.00313889 [Eh]         688.907 [cm^-1]
  Total ZPE, Electronic energy at 0 [K]                              -1592.78335484 [Eh]

  Thermal Energy, E (includes ZPE)
    Electronic E            0.000 [kcal/mol]        0.000 [kJ/mol]       0.00000000 [Eh]
    Translational E         0.889 [kcal/mol]        3.718 [kJ/mol]       0.00141628 [Eh]
    Rotational E            0.889 [kcal/mol]        3.718 [kJ/mol]       0.00141628 [Eh]
    Vibrational E           4.149 [kcal/mol]       17.359 [kJ/mol]       0.00661163 [Eh]
  Correction E              5.926 [kcal/mol]       24.796 [kJ/mol]       0.00944418 [Eh]
  Total E, Electronic energy at  298.15 [K]                          -1592.77704955 [Eh]

  Enthalpy, H_trans = E_trans + k_B * T
    Electronic H            0.000 [kcal/mol]        0.000 [kJ/mol]       0.00000000 [Eh]
    Translational H         1.481 [kcal/mol]        6.197 [kJ/mol]       0.00236046 [Eh]
    Rotational H            0.889 [kcal/mol]        3.718 [kJ/mol]       0.00141628 [Eh]
    Vibrational H           4.149 [kcal/mol]       17.359 [kJ/mol]       0.00661163 [Eh]
  Correction H              6.519 [kcal/mol]       27.275 [kJ/mol]       0.01038837 [Eh]
  Total H, Enthalpy at  298.15 [K]                                   -1592.77610536 [Eh]

  Gibbs free energy, G = H - T * S
    Electronic G           -0.651 [kcal/mol]       -2.723 [kJ/mol]      -0.00103729 [Eh]
    Translational G       -10.579 [kcal/mol]      -44.264 [kJ/mol]      -0.01685922 [Eh]
    Rotational G           -7.025 [kcal/mol]      -29.395 [kJ/mol]      -0.01119584 [Eh]
    Vibrational G          -0.852 [kcal/mol]       -3.566 [kJ/mol]      -0.00135831 [Eh]
  Correction G            -19.108 [kcal/mol]      -79.948 [kJ/mol]      -0.03045067 [Eh]
  Total G, Free enthalpy at  298.15 [K]                              -1592.81694440 [Eh]

    Psi4 stopped on: Thursday, 11 February 2021 03:37PM
    Psi4 wall time for execution: 1:35:27.45

*** Psi4 exiting successfully. Buy a developer a beer!
