
    -----------------------------------------------------------------------
          Psi4: An Open-Source Ab Initio Electronic Structure Package
                               Psi4 1.3.2 release

                         Git: Rev {HEAD} ecbda83 


    R. M. Parrish, L. A. Burns, D. G. A. Smith, A. C. Simmonett,
    A. E. DePrince III, E. G. Hohenstein, U. Bozkaya, A. Yu. Sokolov,
    R. Di Remigio, R. M. Richard, J. F. Gonthier, A. M. James,
    H. R. McAlexander, A. Kumar, M. Saitow, X. Wang, B. P. Pritchard,
    P. Verma, H. F. Schaefer III, K. Patkowski, R. A. King, E. F. Valeev,
    F. A. Evangelista, J. M. Turney, T. D. Crawford, and C. D. Sherrill,
    J. Chem. Theory Comput. 13(7) pp 3185--3197 (2017).
    (doi: 10.1021/acs.jctc.7b00174)


                         Additional Contributions by
    P. Kraus, H. Kruse, M. H. Lechner, M. C. Schieber, R. A. Shaw,
    A. Alenaizan, R. Galvelis, Z. L. Glick, S. Lehtola, and J. P. Misiewicz

    -----------------------------------------------------------------------


    Psi4 started on: Friday, 05 March 2021 03:57PM

    Process ID: 239973
    Host:       c5-8.compute.lan
    PSIDATADIR: /apps/gb/PSI4/1.3.2/share/psi4
    Memory:     500.0 MiB
    Threads:    12
    
  ==> Input File <==

--------------------------------------------------------------------------
memory 46 GB

basis jerome {
assign pot
assign S aug-cc-pV(T+d)Z

[pot]
spherical
****
 K  0
 S 23 1.00
    2.709796E+07     4.136110E-07
    3.592856E+06     3.860330E-06
    7.222638E+05     2.394640E-05
    1.833976E+05     1.157540E-04
    5.464812E+04     4.697010E-04
    1.830913E+04     1.673720E-03
    6.712501E+03     5.370450E-03
    2.643719E+03     1.572510E-02
    1.103835E+03     4.193360E-02
    4.836777E+02     9.987620E-02
    2.206245E+02     2.019680E-01
    1.041117E+02     3.146270E-01
    5.052749E+01     3.107540E-01
    2.485247E+01     1.421920E-01
    1.128102E+01     1.658490E-02
    5.510166E+00    -2.759760E-04
    2.706914E+00     5.158310E-04
    1.122807E+00    -2.268950E-04
    5.236385E-01     6.652980E-05
    2.355180E-01    -3.685150E-05
    4.157977E-02     1.925250E-05
    2.555456E-02    -2.108420E-05
    1.471495E-02     7.044600E-06
 S 23 1.00
    2.709796E+07    -1.188290E-07
    3.592856E+06    -1.108550E-06
    7.222638E+05    -6.881230E-06
    1.833976E+05    -3.324150E-05
    5.464812E+04    -1.350850E-04
    1.830913E+04    -4.814570E-04
    6.712501E+03    -1.552620E-03
    2.643719E+03    -4.578330E-03
    1.103835E+03    -1.247930E-02
    4.836777E+02    -3.094650E-02
    2.206245E+02    -6.855530E-02
    1.041117E+02    -1.268300E-01
    5.052749E+01    -1.745020E-01
    2.485247E+01    -9.089560E-02
    1.128102E+01     2.506960E-01
    5.510166E+00     5.589630E-01
    2.706914E+00     3.284370E-01
    1.122807E+00     3.392170E-02
    5.236385E-01    -2.100280E-03
    2.355180E-01     1.383960E-03
    4.157977E-02    -5.315630E-04
    2.555456E-02     5.770310E-04
    1.471495E-02    -1.931440E-04
 S 23 1.00
    2.709796E+07     3.917470E-08
    3.592856E+06     3.650640E-07
    7.222638E+05     2.269460E-06
    1.833976E+05     1.094290E-05
    5.464812E+04     4.457360E-05
    1.830913E+04     1.584480E-04
    6.712501E+03     5.128440E-04
    2.643719E+03     1.507690E-03
    1.103835E+03     4.136940E-03
    4.836777E+02     1.024690E-02
    2.206245E+02     2.306520E-02
    1.041117E+02     4.308900E-02
    5.052749E+01     6.238120E-02
    2.485247E+01     3.270420E-02
    1.128102E+01    -1.021980E-01
    5.510166E+00    -3.317970E-01
    2.706914E+00    -3.030100E-01
    1.122807E+00     3.098410E-01
    5.236385E-01     6.732700E-01
    2.355180E-01     2.812200E-01
    4.157977E-02     9.376240E-03
    2.555456E-02    -6.955720E-03
    1.471495E-02     2.069460E-03
 S 23 1.00
    2.709796E+07    -7.564440E-09
    3.592856E+06    -7.055390E-08
    7.222638E+05    -4.380820E-07
    1.833976E+05    -2.115540E-06
    5.464812E+04    -8.601300E-06
    1.830913E+04    -3.064440E-05
    6.712501E+03    -9.892550E-05
    2.643719E+03    -2.917760E-04
    1.103835E+03    -7.977860E-04
    4.836777E+02    -1.985820E-03
    2.206245E+02    -4.449740E-03
    1.041117E+02    -8.390260E-03
    5.052749E+01    -1.206000E-02
    2.485247E+01    -6.568410E-03
    1.128102E+01     2.061430E-02
    5.510166E+00     6.770060E-02
    2.706914E+00     6.639570E-02
    1.122807E+00    -8.237770E-02
    5.236385E-01    -1.727150E-01
    2.355180E-01    -2.310290E-01
    4.157977E-02     5.090040E-01
    2.555456E-02     3.472180E-01
    1.471495E-02     2.809620E-01
 S 1 1.00
    2.555456E-02     1.000000E+00
 S 1 1.00
    1.471495E-02     1.000000E+00
 S 1 1.00
    8.470000E-03     1.000000E+00
 P 16 1.00
    9.533309E+03     4.212010E-05
    1.852081E+03     5.068300E-04
    5.464251E+02     3.311700E-03
    1.966947E+02     1.536840E-02
    7.964112E+01     5.457060E-02
    3.488324E+01     1.473880E-01
    1.604479E+01     2.879240E-01
    7.575632E+00     3.750810E-01
    3.672548E+00     2.545160E-01
    1.771130E+00     6.059280E-02
    8.515199E-01     2.508370E-03
    4.016017E-01     6.688870E-04
    1.851933E-01    -1.486150E-04
    5.523390E-02     4.936010E-05
    2.431085E-02    -3.513850E-05
    1.080339E-02     1.171450E-05
 P 16 1.00
    9.533309E+03    -1.280760E-05
    1.852081E+03    -1.547870E-04
    5.464251E+02    -1.010940E-03
    1.966947E+02    -4.738330E-03
    7.964112E+01    -1.703260E-02
    3.488324E+01    -4.754130E-02
    1.604479E+01    -9.560810E-02
    7.575632E+00    -1.337000E-01
    3.672548E+00    -7.425060E-02
    1.771130E+00     1.646810E-01
    8.515199E-01     4.057630E-01
    4.016017E-01     4.113600E-01
    1.851933E-01     1.734240E-01
    5.523390E-02     1.253640E-02
    2.431085E-02    -3.267140E-03
    1.080339E-02     1.039680E-03
 P 16 1.00
    9.533309E+03     1.764010E-06
    1.852081E+03     2.124880E-05
    5.464251E+02     1.392500E-04
    1.966947E+02     6.509140E-04
    7.964112E+01     2.349940E-03
    3.488324E+01     6.547470E-03
    1.604479E+01     1.326270E-02
    7.575632E+00     1.848520E-02
    3.672548E+00     1.025530E-02
    1.771130E+00    -2.652150E-02
    8.515199E-01    -6.086460E-02
    4.016017E-01    -7.474220E-02
    1.851933E-01    -4.870880E-02
    5.523390E-02     2.245720E-01
    2.431085E-02     5.839280E-01
    1.080339E-02     2.980960E-01
 P 1 1.00
    5.523390E-02     1.000000E+00
 P 1 1.00
    1.080339E-02     1.000000E+00
 P 1 1.00
    4.800000E-03     1.000000E+00
 D 6 1.00
    5.670903E+00     8.285900E-03
    1.459042E+00     2.332530E-02
    5.431827E-01     4.878080E-02
    1.346875E-01     7.349020E-02
    5.516013E-02     2.387630E-01
    1.501876E-02     8.253200E-01
 D 1 1.00
    5.516013E-02     1.000000E+00
 D 1 1.00
    1.501876E-02     1.000000E+00
 D 1 1.00
    6.010000E-03     1.000000E+00
 F 1 1.00
    8.493750E-02     1.000000E+00
 F 1 1.00
    3.398000E-02     1.000000E+00
 ****
}

molecule  {
0 2
S   -1.195505039606    1.038239689879    0.000000000000
S   -1.195251814226   -1.038088414318    0.000000000000
K    1.961760191323   -0.000124130722    0.000000000000
}
set {
basis jerome
reference uhf
g_convergence gau_verytight
e_convergence 10
scf_type pk
freeze_core true
geom_maxiter 100
}

set ccenergy {
e_convergence 10
r_convergence 10
}

e = energy('ccsd(t)')

print_out('Stephenergy {}'.format(e))

--------------------------------------------------------------------------

  Memory set to  42.841 GiB by Python driver.

*** tstart() called on c5-8.compute.lan
*** at Fri Mar  5 15:57:12 2021

   => Loading Basis Set <=

    Name: JEROME
    Role: ORBITAL
    Keyword: BASIS
    atoms 1-2 entry S          line   928 file /apps/gb/PSI4/1.3.2/share/psi4/basis/aug-cc-pv_tpd_z.gbs 
    atoms 3   entry K          line     5 inputblock pot 


         ---------------------------------------------------------
                                   SCF
               by Justin Turney, Rob Parrish, Andy Simmonett
                          and Daniel G. A. Smith
                              UHF Reference
                       12 Threads,  43869 MiB Core
         ---------------------------------------------------------

  ==> Geometry <==

    Molecular point group: cs
    Full point group: Cs

    Geometry (in Angstrom), charge = 0, multiplicity = 2:

       Center              X                  Y                   Z               Mass       
    ------------   -----------------  -----------------  -----------------  -----------------
         S           -1.195505039606     1.038239689879     0.000000000000    31.972071174400
         S           -1.195251814226    -1.038088414318     0.000000000000    31.972071174400
         K            1.961760191323    -0.000124130722     0.000000000000    38.963706486400

  Running in cs symmetry.

  Rotational constants: A =      0.24460  B =      0.06985  C =      0.05434 [cm^-1]
  Rotational constants: A =   7333.04708  B =   2094.19617  C =   1628.98513 [MHz]
  Nuclear repulsion =  162.053691465756629

  Charge       = 0
  Multiplicity = 2
  Electrons    = 51
  Nalpha       = 26
  Nbeta        = 25

  ==> Algorithm <==

  SCF Algorithm Type is PK.
  DIIS enabled.
  MOM disabled.
  Fractional occupation disabled.
  Guess Type is SAD.
  Energy threshold   = 1.00e-10
  Density threshold  = 1.00e-08
  Integral threshold = 0.00e+00

  ==> Primary Basis <==

  Basis Set: JEROME
    Blend: AUG-CC-PV(T+D)Z + POT
    Number of shells: 53
    Number of basis function: 169
    Number of Cartesian functions: 199
    Spherical Harmonics?: true
    Max angular momentum: 3

  ==> Pre-Iterations <==

   -------------------------------------------------------
    Irrep   Nso     Nmo     Nalpha   Nbeta   Ndocc  Nsocc
   -------------------------------------------------------
     A'       111     111       0       0       0       0
     A"        58      58       0       0       0       0
   -------------------------------------------------------
    Total     169     169      26      25      25       1
   -------------------------------------------------------

  ==> Integral Setup <==

  Using in-core PK algorithm.
   Calculation information:
      Number of atoms:                   3
      Number of AO shells:              53
      Number of primitives:            287
      Number of atomic orbitals:       199
      Number of basis functions:       169

      Integral cutoff                 1.00e-12
      Number of threads:                12

  Performing in-core PK
  Using 206367590 doubles for integral storage.
  We computed 1579730 shell quartets total.
  Whereas there are 1024596 unique shell quartets.
    54.18 percent of shell quartets recomputed by reordering.

  ==> DiskJK: Disk-Based J/K Matrices <==

    J tasked:                  Yes
    K tasked:                  Yes
    wK tasked:                  No
    Memory [MiB]:            32901
    Schwarz Cutoff:          1E-12

    OpenMP threads:             12

  Minimum eigenvalue in the overlap matrix is 2.3800879442E-04.
  Using Symmetric Orthogonalization.

  SCF Guess: Superposition of Atomic Densities via on-the-fly atomic UHF.

  ==> Iterations <==

                        Total Energy        Delta E     RMS |[F,P]|

   @UHF iter SAD: -1393.47885111449750   -1.39348e+03   0.00000e+00 
   @UHF iter   1: -1394.26891707113145   -7.90066e-01   1.99528e-03 DIIS
   @UHF iter   2: -1394.30802556471804   -3.91085e-02   7.13654e-04 DIIS
   @UHF iter   3: -1394.31230126017726   -4.27570e-03   2.20686e-04 DIIS
   @UHF iter   4: -1394.31326943729300   -9.68177e-04   9.43521e-05 DIIS
   @UHF iter   5: -1394.31347285136849   -2.03414e-04   2.46018e-05 DIIS
   @UHF iter   6: -1394.31349145269405   -1.86013e-05   7.25621e-06 DIIS
   @UHF iter   7: -1394.31349336425342   -1.91156e-06   2.84422e-06 DIIS
   @UHF iter   8: -1394.31349368841575   -3.24162e-07   1.47862e-06 DIIS
   @UHF iter   9: -1394.31349380266602   -1.14250e-07   8.55522e-07 DIIS
   @UHF iter  10: -1394.31349385255498   -4.98890e-08   5.13352e-07 DIIS
   @UHF iter  11: -1394.31349387015257   -1.75976e-08   3.32160e-07 DIIS
   @UHF iter  12: -1394.31349388056037   -1.04078e-08   1.75372e-07 DIIS
   @UHF iter  13: -1394.31349388402487   -3.46449e-09   5.43179e-08 DIIS
   @UHF iter  14: -1394.31349388426247   -2.37605e-10   2.08915e-08 DIIS
   @UHF iter  15: -1394.31349388428953   -2.70575e-11   1.26534e-08 DIIS
   @UHF iter  16: -1394.31349388430135   -1.18234e-11   9.90962e-09 DIIS
  Energy and wave function converged.


  ==> Post-Iterations <==

   @Spin Contamination Metric:   3.675185953E-02
   @S^2 Expected:                7.500000000E-01
   @S^2 Observed:                7.867518595E-01
   @S   Expected:                5.000000000E-01
   @S   Observed:                5.000000000E-01

    Orbital Energies [Eh]
    ---------------------

    Alpha Occupied:                                                       

       1Ap  -133.559639     2Ap   -91.906600     3Ap   -91.906586  
       4Ap   -14.515895     1App  -11.545912     5Ap   -11.545829  
       6Ap   -11.545755     7Ap    -8.904124     8Ap    -8.903953  
       2App   -6.593108     3App   -6.593085     9Ap    -6.583005  
      10Ap    -6.582636    11Ap    -6.581447    12Ap    -6.581422  
      13Ap    -1.773861     4App   -0.982956    14Ap    -0.981740  
      15Ap    -0.981399    16Ap    -0.944694    17Ap    -0.757499  
       5App   -0.414068    18Ap    -0.402889    19Ap    -0.386218  
       6App   -0.295976    20Ap    -0.260558  

    Alpha Virtual:                                                        

      21Ap    -0.019898     7App    0.002172    22Ap     0.002630  
      23Ap     0.005694    24Ap     0.016456     8App    0.017141  
      25Ap     0.017264     9App    0.019894    26Ap     0.020822  
      27Ap     0.022363    10App    0.022864    28Ap     0.028726  
      29Ap     0.032855    30Ap     0.051010    11App    0.051139  
      31Ap     0.055475    12App    0.058848    32Ap     0.061864  
      13App    0.073584    33Ap     0.074484    34Ap     0.088214  
      35Ap     0.104497    36Ap     0.108420    37Ap     0.125503  
      14App    0.125671    38Ap     0.128645    39Ap     0.128782  
      15App    0.129772    16App    0.133148    40Ap     0.133828  
      41Ap     0.150436    17App    0.152720    42Ap     0.153540  
      18App    0.167031    43Ap     0.170578    44Ap     0.174856  
      19App    0.178463    20App    0.186395    45Ap     0.206850  
      46Ap     0.207619    47Ap     0.221486    21App    0.233524  
      48Ap     0.244627    49Ap     0.267881    50Ap     0.310713  
      51Ap     0.310888    22App    0.337558    52Ap     0.350663  
      53Ap     0.362696    23App    0.375758    24App    0.381792  
      54Ap     0.383548    25App    0.386398    55Ap     0.391627  
      56Ap     0.391684    26App    0.394176    57Ap     0.406249  
      27App    0.407370    58Ap     0.428291    59Ap     0.431062  
      60Ap     0.439844    28App    0.452923    29App    0.456736  
      61Ap     0.463041    30App    0.466753    62Ap     0.488095  
      63Ap     0.514916    64Ap     0.537827    31App    0.666900  
      32App    0.703384    65Ap     0.709128    33App    0.711268  
      66Ap     0.730723    67Ap     0.746964    68Ap     0.785639  
      34App    0.801219    69Ap     0.814185    70Ap     0.815400  
      35App    0.850902    71Ap     0.856573    72Ap     0.870972  
      36App    0.892309    73Ap     0.909448    37App    0.914865  
      74Ap     0.947910    75Ap     0.948197    76Ap     0.962307  
      38App    1.012362    77Ap     1.019122    39App    1.048342  
      78Ap     1.052795    79Ap     1.079081    40App    1.161922  
      80Ap     1.197208    81Ap     1.197952    41App    1.202646  
      82Ap     1.218782    42App    1.363604    83Ap     1.395243  
      84Ap     1.462291    85Ap     1.677322    43App    2.031453  
      86Ap     2.036085    44App    2.064655    87Ap     2.067245  
      45App    2.079041    88Ap     2.096788    89Ap     2.132098  
      46App    2.214699    90Ap     2.284061    47App    2.287128  
      91Ap     2.291980    92Ap     2.312038    93Ap     2.372138  
      48App    2.378753    94Ap     2.413056    49App    2.421767  
      95Ap     2.450540    96Ap     2.473530    50App    2.485780  
      51App    2.504877    52App    2.561541    97Ap     2.581744  
      53App    2.585134    98Ap     2.669015    99Ap     2.685746  
     100Ap     2.707738   101Ap     2.727210    54App    2.868119  
     102Ap     2.899279   103Ap     3.990468   104Ap     4.956113  
     105Ap     5.750241    55App    7.417027   106Ap     7.419797  
     107Ap     7.436086    56App    7.436359    57App    7.438761  
     108Ap     7.461778    58App    7.509767   109Ap     7.532485  
     110Ap     7.597379   111Ap     7.607757  

    Beta Occupied:                                                        

       1Ap  -133.559661     2Ap   -91.901011     3Ap   -91.900998  
       4Ap   -14.515925     1App  -11.545946     5Ap   -11.545863  
       6Ap   -11.545786     7Ap    -8.898048     8Ap    -8.897840  
       9Ap    -6.580305    10Ap    -6.579922    11Ap    -6.577905  
      12Ap    -6.577882     2App   -6.568641     3App   -6.568605  
      13Ap    -1.774022     4App   -0.983116    14Ap    -0.981887  
      15Ap    -0.980416    16Ap    -0.906443    17Ap    -0.686889  
      18Ap    -0.386959    19Ap    -0.377688     5App   -0.289372  
      20Ap    -0.247560  

    Beta Virtual:                                                         

      21Ap    -0.019909     6App    0.002202    22Ap     0.002644  
      23Ap     0.005682    24Ap     0.016451     7App    0.016970  
      25Ap     0.017265     8App    0.019936    26Ap     0.020847  
      27Ap     0.022413     9App    0.022957    28Ap     0.028728  
      29Ap     0.032765    10App    0.047004    30Ap     0.050977  
      31Ap     0.055744    11App    0.059302    32Ap     0.061831  
      12App    0.065092    13App    0.073768    33Ap     0.074678  
      34Ap     0.087877    35Ap     0.104280    36Ap     0.110123  
      37Ap     0.125703    14App    0.125788    38Ap     0.128607  
      39Ap     0.129633    15App    0.129695    40Ap     0.133873  
      16App    0.134981    41Ap     0.150295    42Ap     0.153793  
      17App    0.164167    18App    0.171837    43Ap     0.172132  
      44Ap     0.174536    19App    0.183770    20App    0.187111  
      45Ap     0.207576    46Ap     0.212305    47Ap     0.224324  
      21App    0.233743    48Ap     0.245241    49Ap     0.267054  
      50Ap     0.313711    51Ap     0.317340    52Ap     0.351906  
      22App    0.356554    53Ap     0.366872    54Ap     0.383858  
      23App    0.384530    24App    0.388647    25App    0.389661  
      55Ap     0.391531    56Ap     0.395683    26App    0.396031  
      27App    0.407416    57Ap     0.408602    58Ap     0.430941  
      59Ap     0.433718    60Ap     0.442861    28App    0.462580  
      61Ap     0.468826    29App    0.470033    30App    0.475484  
      62Ap     0.488977    63Ap     0.518522    64Ap     0.538559  
      31App    0.686339    65Ap     0.716880    66Ap     0.736504  
      32App    0.739702    33App    0.741880    67Ap     0.749420  
      68Ap     0.798379    69Ap     0.814469    34App    0.818256  
      70Ap     0.831406    71Ap     0.868870    35App    0.885519  
      72Ap     0.895515    73Ap     0.915055    36App    0.921944  
      37App    0.925370    74Ap     0.951617    75Ap     0.960305  
      76Ap     0.966158    38App    1.024785    77Ap     1.030161  
      78Ap     1.054718    39App    1.058920    79Ap     1.085425  
      40App    1.174099    80Ap     1.196913    81Ap     1.207441  
      41App    1.209215    82Ap     1.220860    42App    1.379778  
      83Ap     1.397277    84Ap     1.475197    85Ap     1.692742  
      43App    2.046668    86Ap     2.050803    44App    2.079693  
      87Ap     2.082265    45App    2.094966    88Ap     2.098958  
      89Ap     2.134302    46App    2.236768    90Ap     2.288905  
      91Ap     2.294133    47App    2.303910    92Ap     2.314824  
      93Ap     2.385164    48App    2.391461    94Ap     2.425094  
      49App    2.454128    95Ap     2.461890    96Ap     2.495883  
      50App    2.508780    51App    2.531935    52App    2.586080  
      97Ap     2.597937    53App    2.601407    98Ap     2.674532  
      99Ap     2.690241   100Ap     2.712224   101Ap     2.733025  
      54App    2.889217   102Ap     2.901988   103Ap     3.993966  
     104Ap     4.967280   105Ap     5.760580    55App    7.423223  
     106Ap     7.426119   107Ap     7.442616    56App    7.442879  
      57App    7.444817   108Ap     7.462855    58App    7.515725  
     109Ap     7.533365   110Ap     7.599320   111Ap     7.609640  

    Final Occupation by Irrep:
             Ap   App 
    DOCC [    20,    5 ]
    SOCC [     0,    1 ]

  @UHF Final Energy: -1394.31349388430135

   => Energetics <=

    Nuclear Repulsion Energy =            162.0536914657566285
    One-Electron Energy =               -2249.3248283459606682
    Two-Electron Energy =                 692.9576429959025745
    Total Energy =                      -1394.3134938843013515

  UHF NO Occupations:
  HONO-2 :   20 Ap 1.9974858
  HONO-1 :    5App 1.9869148
  HONO-0 :    6App 1.0000000
  LUNO+0 :    7App 0.0130852
  LUNO+1 :   21 Ap 0.0025142
  LUNO+2 :   22 Ap 0.0022671
  LUNO+3 :   23 Ap 0.0003117


Computation Completed


Properties will be evaluated at   0.000000,   0.000000,   0.000000 [a0]

Properties computed using the SCF density matrix

  Nuclear Dipole Moment: [e a0]
     X:    -1.8494      Y:     0.0001      Z:     0.0000

  Electronic Dipole Moment: [e a0]
     X:     6.6350      Y:    -0.0002      Z:     0.0000

  Dipole Moment: [e a0]
     X:     4.7856      Y:    -0.0001      Z:     0.0000     Total:     4.7856

  Dipole Moment: [D]
     X:    12.1638      Y:    -0.0003      Z:     0.0000     Total:    12.1638


*** tstop() called on c5-8.compute.lan at Fri Mar  5 15:58:17 2021
Module time:
	user time   =     233.74 seconds =       3.90 minutes
	system time =       1.78 seconds =       0.03 minutes
	total time  =         65 seconds =       1.08 minutes
Total time:
	user time   =     233.74 seconds =       3.90 minutes
	system time =       1.78 seconds =       0.03 minutes
	total time  =         65 seconds =       1.08 minutes
 MINTS: Wrapper to libmints.
   by Justin Turney

   Calculation information:
      Number of threads:                12
      Number of atoms:                   3
      Number of AO shells:              53
      Number of SO shells:              53
      Number of primitives:            287
      Number of atomic orbitals:       199
      Number of basis functions:       169

      Number of irreps:                  2
      Integral cutoff                 0.00e+00
      Number of functions per irrep: [ 111   58 ]

 OEINTS: Overlap, kinetic, potential, dipole, and quadrupole integrals
         stored in file 35.

      Computing two-electron integrals...done
      Computed 51035953 non-zero two-electron integrals.
        Stored in file 33.


*** tstart() called on c5-8.compute.lan
*** at Fri Mar  5 16:00:01 2021


	Wfn Parameters:
	--------------------
	Wavefunction         = CCSD_T
	Number of irreps     = 2
	Number of MOs        = 169
	Number of active MOs = 150
	AO-Basis             = NONE
	Semicanonical        = false
	Reference            = UHF
	Print Level          = 1

	IRREP	# MOs	# FZDC	# DOCC	# SOCC	# VIRT	# FZVR
	-----	-----	------	------	------	------	------
	 Ap	   111	    15	    5	    0	    91	    0
	 App	   58	    4	    1	    1	    52	    0
	Transforming integrals...
	IWL integrals will be deleted.
	(OO|OO)...
	Presorting SO-basis two-electron integrals.
	Sorting File: SO Ints (nn|nn) nbuckets = 1
	Transforming the one-electron integrals and constructing Fock matrices
	Starting AA/AB first half-transformation.
	Sorting AA/AB half-transformed integrals.
	Starting BB first half-transformation.
	Sorting BB half-transformed integrals.
	First half integral transformation complete.
	Starting AA second half-transformation.
	Starting AB second half-transformation.
	Starting BB second half-transformation.
	Two-electron integral transformation complete.
	(OO|OV)...
	Starting AA second half-transformation.
	Starting AB second half-transformation.
	Starting BB second half-transformation.
	Two-electron integral transformation complete.
	(OO|VV)...
	Starting AA second half-transformation.
	Starting AB second half-transformation.
	Starting BB second half-transformation.
	Two-electron integral transformation complete.
	(OV|OO)...
	Starting AA/AB first half-transformation.
	Sorting AA/AB half-transformed integrals.
	Starting BB first half-transformation.
	Sorting BB half-transformed integrals.
	First half integral transformation complete.
	Starting AA second half-transformation.
	Starting AB second half-transformation.
	Starting BB second half-transformation.
	Two-electron integral transformation complete.
	(OV|OV)...
	Starting AA second half-transformation.
	Starting AB second half-transformation.
	Starting BB second half-transformation.
	Two-electron integral transformation complete.
	(OV|VV)...
	Starting AA second half-transformation.
	Starting AB second half-transformation.
	Starting BB second half-transformation.
	Two-electron integral transformation complete.
	(VV|OO)...
	Starting AA/AB first half-transformation.
	Sorting AA/AB half-transformed integrals.
	Starting BB first half-transformation.
	Sorting BB half-transformed integrals.
	First half integral transformation complete.
	Starting AA second half-transformation.
	Starting AB second half-transformation.
	Starting BB second half-transformation.
	Two-electron integral transformation complete.
	(VV|OV)...
	Starting AA second half-transformation.
	Starting AB second half-transformation.
	Starting BB second half-transformation.
	Two-electron integral transformation complete.
	(VV|VV)...
	Starting AA second half-transformation.
	Starting AB second half-transformation.
	Starting BB second half-transformation.
	Two-electron integral transformation complete.
	Frozen core energy     =  -1525.24981923097994

	Size of irrep 0 of <AB|CD> integrals:     29.387 (MW) /    235.098 (MB)
	Size of irrep 1 of <AB|CD> integrals:     22.392 (MW) /    179.135 (MB)
	Total:                                    51.779 (MW) /    414.233 (MB)

	Size of irrep 0 of <ab|cd> integrals:     29.954 (MW) /    239.630 (MB)
	Size of irrep 1 of <ab|cd> integrals:     23.261 (MW) /    186.091 (MB)
	Total:                                    53.215 (MW) /    425.720 (MB)

	Size of irrep 0 of <Ab|Cd> integrals:    121.815 (MW) /    974.523 (MB)
	Size of irrep 1 of <Ab|Cd> integrals:     91.298 (MW) /    730.384 (MB)
	Total:                                   213.113 (MW) /   1704.907 (MB)

	Size of irrep 0 of <IA|BC> integrals:      6.141 (MW) /     49.125 (MB)
	Size of irrep 1 of <IA|BC> integrals:      4.183 (MW) /     33.465 (MB)
	Total:                                    10.324 (MW) /     82.590 (MB)

	Size of irrep 0 of <ia|bc> integrals:      5.634 (MW) /     45.070 (MB)
	Size of irrep 1 of <ia|bc> integrals:      3.434 (MW) /     27.472 (MB)
	Total:                                     9.068 (MW) /     72.542 (MB)

	Size of irrep 0 of <Ia|Bc> integrals:      6.192 (MW) /     49.534 (MB)
	Size of irrep 1 of <Ia|Bc> integrals:      4.271 (MW) /     34.169 (MB)
	Total:                                    10.463 (MW) /     83.703 (MB)

	Size of irrep 0 of <iA|bC> integrals:      5.596 (MW) /     44.766 (MB)
	Size of irrep 1 of <iA|bC> integrals:      3.354 (MW) /     26.830 (MB)
	Total:                                     8.950 (MW) /     71.597 (MB)

	Size of irrep 0 of tIjAb amplitudes:       0.298 (MW) /      2.384 (MB)
	Size of irrep 1 of tIjAb amplitudes:       0.143 (MW) /      1.147 (MB)
	Total:                                     0.441 (MW) /      3.531 (MB)

	Nuclear Rep. energy          =    162.05369146575663
	SCF energy                   =  -1394.31349388430135
	One-electron energy          =    -55.87791955281445
	Two-electron (AA) energy     =      6.08234263037084
	Two-electron (BB) energy     =      4.34773712491606
	Two-electron (AB) energy     =     14.33047367841901
	Two-electron energy          =     24.76055343370592
	Reference energy             =  -1394.31349388433182

*** tstop() called on c5-8.compute.lan at Fri Mar  5 16:01:56 2021
Module time:
	user time   =     192.27 seconds =       3.20 minutes
	system time =      33.47 seconds =       0.56 minutes
	total time  =        115 seconds =       1.92 minutes
Total time:
	user time   =     532.21 seconds =       8.87 minutes
	system time =      36.80 seconds =       0.61 minutes
	total time  =        284 seconds =       4.73 minutes
            **************************
            *                        *
            *        CCENERGY        *
            *                        *
            **************************

    Nuclear Rep. energy (wfn)     =  162.053691465756629
    SCF energy          (wfn)     = -1394.313493884301351
    Reference energy    (file100) = -1394.313493884331820

    Input parameters:
    -----------------
    Wave function   =     CCSD_T
    Reference wfn   =     UHF
    Brueckner       =     No
    Memory (Mbytes) =     46000.0
    Maxiter         =     50
    R_Convergence   =     1.0e-10
    E_Convergence   =     1.0e-10
    Restart         =     Yes
    DIIS            =     Yes
    AO Basis        =     NONE
    ABCD            =     NEW
    Cache Level     =     2
    Cache Type      =     LRU
    Print Level     =     1
    Num. of threads =     12
    # Amps to Print =     10
    Print MP2 Amps? =     No
    Analyze T2 Amps =     No
    Print Pair Ener =     No
    Local CC        =     No
    SCS-MP2         =     False
    SCSN-MP2        =     False
    SCS-CCSD        =     False

MP2 correlation energy -0.3450276986787131
                Solving CC Amplitude Equations
                ------------------------------
  Iter             Energy              RMS        T1Diag      D1Diag    New D1Diag    D2Diag
  ----     ---------------------    ---------   ----------  ----------  ----------   --------
     0        -0.345027698678713    0.000e+00    0.000000    0.000000    0.000000    0.000000
     1        -0.358596671373111    8.242e-02    0.015911    0.000000    0.000000    0.000000
     2        -0.369253272772102    2.597e-02    0.018535    0.000000    0.000000    0.000000
     3        -0.371438421904796    1.234e-02    0.022069    0.000000    0.000000    0.000000
     4        -0.371323078251316    3.432e-03    0.023146    0.000000    0.000000    0.000000
     5        -0.371288221018288    1.413e-03    0.023428    0.000000    0.000000    0.000000
     6        -0.371281851470688    6.110e-04    0.023515    0.000000    0.000000    0.000000
     7        -0.371278596037494    3.085e-04    0.023542    0.000000    0.000000    0.000000
     8        -0.371279725500196    1.658e-04    0.023547    0.000000    0.000000    0.000000
     9        -0.371283374631189    9.453e-05    0.023548    0.000000    0.000000    0.000000
    10        -0.371281955561599    5.114e-05    0.023550    0.000000    0.000000    0.000000
    11        -0.371281778781421    2.250e-05    0.023549    0.000000    0.000000    0.000000
    12        -0.371281405164990    1.093e-05    0.023550    0.000000    0.000000    0.000000
    13        -0.371281224192217    5.444e-06    0.023550    0.000000    0.000000    0.000000
    14        -0.371281219414648    2.979e-06    0.023550    0.000000    0.000000    0.000000
    15        -0.371281223647436    1.863e-06    0.023550    0.000000    0.000000    0.000000
    16        -0.371281223636242    1.046e-06    0.023550    0.000000    0.000000    0.000000
    17        -0.371281227939537    5.841e-07    0.023550    0.000000    0.000000    0.000000
    18        -0.371281228298665    2.799e-07    0.023550    0.000000    0.000000    0.000000
    19        -0.371281228115969    1.347e-07    0.023550    0.000000    0.000000    0.000000
    20        -0.371281228507292    7.437e-08    0.023550    0.000000    0.000000    0.000000
    21        -0.371281228415706    4.283e-08    0.023550    0.000000    0.000000    0.000000
    22        -0.371281228370670    2.389e-08    0.023550    0.000000    0.000000    0.000000
    23        -0.371281228326753    1.289e-08    0.023550    0.000000    0.000000    0.000000
    24        -0.371281228283782    7.737e-09    0.023550    0.000000    0.000000    0.000000
    25        -0.371281228296525    4.477e-09    0.023550    0.000000    0.000000    0.000000
    26        -0.371281228315907    2.637e-09    0.023550    0.000000    0.000000    0.000000
    27        -0.371281228317321    1.501e-09    0.023550    0.000000    0.000000    0.000000
    28        -0.371281228316680    9.413e-10    0.023550    0.000000    0.000000    0.000000
    29        -0.371281228315176    5.689e-10    0.023550    0.000000    0.000000    0.000000
    30        -0.371281228312836    2.827e-10    0.023550    0.000000    0.000000    0.000000
    31        -0.371281228312557    1.501e-10    0.023550    0.000000    0.000000    0.000000
    32        -0.371281228313228    7.924e-11    0.023550    0.000000    0.000000    0.000000

    Iterations converged.


    Largest TIA Amplitudes:
              5 106        -0.0250797152
              5 116         0.0132811597
              3  31         0.0126046911
              2  48         0.0125125200
              5 107        -0.0112427532
              6 101         0.0111559788
              5 102        -0.0099253157
              2  36         0.0094573094
              2  50        -0.0092514969
              2  28         0.0077883257

    Largest Tia Amplitudes:
              5 117        -0.0246345383
              5 107         0.0211809414
              5 103         0.0187817758
              5 109         0.0147953058
              5 116        -0.0139601079
              3  31         0.0134491753
              2  48         0.0112010844
              1  26        -0.0109561158
              5 108         0.0103836290
              2  29        -0.0101739310

    Largest TIJAB Amplitudes:
      6   2 106  24         0.0150070523
      4   2  31  24         0.0134045012
      6   2 116  24        -0.0125033269
      6   2 106  29        -0.0110673579
      5   3 107  30         0.0102992039
      4   2  46  24        -0.0096627035
      6   2 116  29         0.0095524177
      5   2 116  44        -0.0093738405
      6   4 119  49         0.0092263216
      6   4 106  31        -0.0090035078

    Largest Tijab Amplitudes:
      5   2  97  25        -0.0277145079
      5   2  97  26        -0.0228881344
      5   2  97  30         0.0197555512
      5   4  97  31         0.0168355538
      5   2  97  22         0.0155959518
      5   2  95  25        -0.0153215438
      5   2  97  15         0.0134528398
      4   2  31  25         0.0127689495
      5   2  95  26        -0.0126600861
      5   4  97  36         0.0114819808

    Largest TIjAb Amplitudes:
      2   5  24  97        -0.0363594973
      2   2  24  25        -0.0299549756
      6   5 106  97         0.0273115201
      2   2  24  26        -0.0239462145
      2   2  24  30         0.0209221477
      2   5  22  97        -0.0206115732
      6   5 116  97        -0.0205138785
      2   5  24  95        -0.0200572240
      2   5  15  97         0.0173123470
      2   5  29  97         0.0172357226

    SCF energy       (wfn)                    = -1394.313493884301351
    Reference energy (file100)                = -1394.313493884331820

    Opposite-spin MP2 correlation energy      =   -0.257344679314142
    Same-spin MP2 correlation energy          =   -0.087683019364571
    MP2 correlation energy                    =   -0.345027698678713
      * MP2 total energy                      = -1394.658521583010497

    Opposite-spin CCSD correlation energy     =   -0.289625255742548
    Same-spin CCSD correlation energy         =   -0.081655972570680
    CCSD correlation energy                   =   -0.371281228313228
      * CCSD total energy                     = -1394.684775112644957

            **************************
            *                        *
            *        CCTRIPLES       *
            *                        *
            **************************


    Wave function   =    CCSD_T
    Reference wfn   =      UHF

    Nuclear Rep. energy (wfn)                =  162.053691465756629
    SCF energy          (wfn)                = -1394.313493884301351
    Reference energy    (file100)            = -1394.313493884331820
    CCSD energy         (file100)            =   -0.371281228313228
    Total CCSD energy   (file100)            = -1394.684775112644957

    Number of ijk index combinations:
    Spin Case AAA:                                  35
    Spin Case BBB:                                  20
    Spin Case AAB:                                 126
    Spin Case ABB:                                 105
    AAA (T) energy                             =   -0.000563597120337
    BBB (T) energy                             =   -0.000656344617481
    AAB (T) energy                             =   -0.010572156424676
    ABB (T) energy                             =   -0.010295368072322
    (T) energy                                   =   -0.022087466234815
      * CCSD(T) total energy                     = -1394.706862578879964

Stephenergy -1394.70686257888
    Psi4 stopped on: Friday, 05 March 2021 04:05PM
    Psi4 wall time for execution: 0:08:23.66

*** Psi4 exiting successfully. Buy a developer a beer!
