
    -----------------------------------------------------------------------
          Psi4: An Open-Source Ab Initio Electronic Structure Package
                               Psi4 1.4a2.dev191 

                         Git: Rev {master} 0ab5346 


    R. M. Parrish, L. A. Burns, D. G. A. Smith, A. C. Simmonett,
    A. E. DePrince III, E. G. Hohenstein, U. Bozkaya, A. Yu. Sokolov,
    R. Di Remigio, R. M. Richard, J. F. Gonthier, A. M. James,
    H. R. McAlexander, A. Kumar, M. Saitow, X. Wang, B. P. Pritchard,
    P. Verma, H. F. Schaefer III, K. Patkowski, R. A. King, E. F. Valeev,
    F. A. Evangelista, J. M. Turney, T. D. Crawford, and C. D. Sherrill,
    J. Chem. Theory Comput. 13(7) pp 3185--3197 (2017).
    (doi: 10.1021/acs.jctc.7b00174)


                         Additional Contributions by
    P. Kraus, H. Kruse, M. H. Lechner, M. C. Schieber, R. A. Shaw,
    A. Alenaizan, R. Galvelis, Z. L. Glick, S. Lehtola, and J. P. Misiewicz

    -----------------------------------------------------------------------


    Psi4 started on: Tuesday, 02 February 2021 02:39PM

    Process ID: 108090
    Host:       c2-18.compute.lan
    PSIDATADIR: /apps/gb/PSI4/1.4.0/share/psi4
    Memory:     500.0 MiB
    Threads:    1
    
  ==> Input File <==

--------------------------------------------------------------------------
memory 10 GB

molecule  {
0 1
S
S 1 r1
S 1 r2 2 a1
r1 = 2.0
r2 = 2.1
a1 = 120.0
}

set {
reference uks
basis aug-cc-pvtz
g_convergence gau_verytight
dft_spherical_points 590
dft_radial_points 99
}

optimize('wb97x-d')
frequencies('wb97x-d')

--------------------------------------------------------------------------

  Memory set to   9.313 GiB by Python driver.
gradient() will perform analytic gradient computation.

*** tstart() called on c2-18.compute.lan
*** at Tue Feb  2 14:39:46 2021

   => Loading Basis Set <=

    Name: AUG-CC-PVTZ
    Role: ORBITAL
    Keyword: BASIS
    atoms 1-3 entry S          line   906 file /apps/gb/PSI4/1.4.0/share/psi4/basis/aug-cc-pvtz.gbs 

   => WB97X-D: Empirical Dispersion <=

    Chai and Head-Gordon Dispersion Correction
    Chai, J.-D.; Head-Gordon, M. (2010), J. Chem. Phys., 132: 6615-6620

        s6 =       1.000000


         ---------------------------------------------------------
                                   SCF
               by Justin Turney, Rob Parrish, Andy Simmonett
                          and Daniel G. A. Smith
                              UKS Reference
                        1 Threads,   9536 MiB Core
         ---------------------------------------------------------

  ==> Geometry <==

    Molecular point group: cs
    Full point group: Cs

    Geometry (in Angstrom), charge = 0, multiplicity = 1:

       Center              X                  Y                   Z               Mass       
    ------------   -----------------  -----------------  -----------------  -----------------
         S            0.606217782649     0.316666666667     0.000000000000    31.972071174400
         S            0.606217782649    -1.683333333333     0.000000000000    31.972071174400
         S           -1.212435565298     1.366666666667     0.000000000000    31.972071174400

  Running in cs symmetry.

  Rotational constants: A =      0.75413  B =      0.08359  C =      0.07525 [cm^-1]
  Rotational constants: A =  22608.14975  B =   2506.04720  C =   2255.97858 [MHz]
  Nuclear repulsion =  170.392939668640480

  Charge       = 0
  Multiplicity = 1
  Electrons    = 48
  Nalpha       = 24
  Nbeta        = 24

  ==> Algorithm <==

  SCF Algorithm Type is DF.
  DIIS enabled.
  MOM disabled.
  Fractional occupation disabled.
  Guess Type is SAD.
  Energy threshold   = 1.00e-08
  Density threshold  = 1.00e-08
  Integral threshold = 0.00e+00

  ==> Primary Basis <==

  Basis Set: AUG-CC-PVTZ
    Blend: AUG-CC-PVTZ
    Number of shells: 48
    Number of basis function: 150
    Number of Cartesian functions: 177
    Spherical Harmonics?: true
    Max angular momentum: 3

  ==> DFT Potential <==

   => Composite Functional: WB97X-D <= 

    wB97X-D Hyb-GGA Exchange-Correlation Functional

    J.-D. Chai and M. Head-Gordon, Phys. Chem. Chem. Phys. 10, 6615 (2008)

    Deriv               =              1
    GGA                 =           TRUE
    Meta                =          FALSE

    Exchange Hybrid     =           TRUE
    MP2 Hybrid          =          FALSE

   => Exchange-Correlation Functionals <=

    1.0000   wB97D range-separated functional

   => Exact (HF) Exchange <=

    0.7780            HF,LR [omega = 0.2000]
    0.2220               HF 

   => Molecular Quadrature <=

    Radial Scheme          =       TREUTLER
    Pruning Scheme         =           NONE
    Nuclear Scheme         =       TREUTLER

    BS radius alpha        =              1
    Pruning alpha          =              1
    Radial Points          =             99
    Spherical Points       =            590
    Total Points           =         169927
    Total Blocks           =           1392
    Max Points             =            256
    Max Functions          =            150
    Weights Tolerance      =       1.00E-15

   => Loading Basis Set <=

    Name: (AUG-CC-PVTZ AUX)
    Role: JKFIT
    Keyword: DF_BASIS_SCF
    atoms 1-3 entry S          line   730 file /apps/gb/PSI4/1.4.0/share/psi4/basis/aug-cc-pvtz-jkfit.gbs 

  ==> Pre-Iterations <==

   -------------------------------------------------------
    Irrep   Nso     Nmo     Nalpha   Nbeta   Ndocc  Nsocc
   -------------------------------------------------------
     A'        99      99       0       0       0       0
     A"        51      51       0       0       0       0
   -------------------------------------------------------
    Total     150     150      24      24      24       0
   -------------------------------------------------------

  ==> Integral Setup <==

  ==> DiskDFJK: Density-Fitted J/K Matrices <==

    J tasked:                  Yes
    K tasked:                  Yes
    wK tasked:                 Yes
    Omega:               2.000E-01
    OpenMP threads:              1
    Integrals threads:           1
    Memory [MiB]:             6486
    Algorithm:                Core
    Integral Cache:           NONE
    Schwarz Cutoff:          1E-12
    Fitting Condition:       1E-10

   => Auxiliary Basis Set <=

  Basis Set: (AUG-CC-PVTZ AUX)
    Blend: AUG-CC-PVTZ-JKFIT
    Number of shells: 126
    Number of basis function: 438
    Number of Cartesian functions: 540
    Spherical Harmonics?: true
    Max angular momentum: 4

  Cached 100.0% of DFT collocation blocks in 0.650 [GiB].

  Minimum eigenvalue in the overlap matrix is 2.2915518432E-04.
  Using Symmetric Orthogonalization.

  SCF Guess: Superposition of Atomic Densities via on-the-fly atomic UHF.

  ==> Iterations <==

                           Total Energy        Delta E     RMS |[F,P]|

   @DF-UKS iter SAD: -1194.07218588701244   -1.19407e+03   0.00000e+00 
   @DF-UKS iter   1: -1194.49654773932343   -4.24362e-01   3.65656e-03 DIIS
   @DF-UKS iter   2: -1194.44533570942735    5.12120e-02   4.29725e-03 DIIS
   @DF-UKS iter   3: -1194.56744102211974   -1.22105e-01   8.75512e-04 DIIS
   @DF-UKS iter   4: -1194.57180379650617   -4.36277e-03   3.85470e-04 DIIS
   @DF-UKS iter   5: -1194.57300550068749   -1.20170e-03   8.80050e-05 DIIS
   @DF-UKS iter   6: -1194.57309373653561   -8.82358e-05   1.40863e-05 DIIS
   @DF-UKS iter   7: -1194.57309933956935   -5.60303e-06   4.79665e-06 DIIS
   @DF-UKS iter   8: -1194.57310039454114   -1.05497e-06   1.80138e-06 DIIS
   @DF-UKS iter   9: -1194.57310050873275   -1.14192e-07   5.41466e-07 DIIS
   @DF-UKS iter  10: -1194.57310051673994   -8.00719e-09   2.04427e-07 DIIS
   @DF-UKS iter  11: -1194.57310051836043   -1.62049e-09   1.12276e-07 DIIS
   @DF-UKS iter  12: -1194.57310051868762   -3.27191e-10   3.41348e-08 DIIS
   @DF-UKS iter  13: -1194.57310051873515   -4.75211e-11   1.64620e-08 DIIS
   @DF-UKS iter  14: -1194.57310051874310   -7.95808e-12   7.35654e-09 DIIS
  Energy and wave function converged.


  ==> Post-Iterations <==

   @Spin Contamination Metric:   4.263256415E-14
   @S^2 Expected:                0.000000000E+00
   @S^2 Observed:                4.263256415E-14
   @S   Expected:                0.000000000E+00
   @S   Observed:                0.000000000E+00

    Orbital Energies [Eh]
    ---------------------

    Alpha Occupied:                                                       

       1Ap   -89.201103     2Ap   -89.104407     3Ap   -89.096705  
       4Ap    -8.197097     5Ap    -8.110238     6Ap    -8.101104  
       7Ap    -6.144810     1App   -6.144337     8Ap    -6.140512  
       9Ap    -6.059980     2App   -6.057083    10Ap    -6.051451  
      11Ap    -6.050099     3App   -6.047800    12Ap    -6.040787  
      13Ap    -0.954886    14Ap    -0.823720    15Ap    -0.702200  
      16Ap    -0.510796    17Ap    -0.483618     4App   -0.473553  
      18Ap    -0.353748     5App   -0.350585    19Ap    -0.349077  

    Alpha Virtual:                                                        

       6App   -0.124733    20Ap    -0.018296    21Ap     0.035351  
      22Ap     0.068127    23Ap     0.076758    24Ap     0.079897  
       7App    0.089326    25Ap     0.107712    26Ap     0.109457  
       8App    0.113790    27Ap     0.116018     9App    0.119987  
      28Ap     0.135712    29Ap     0.183194    10App    0.187046  
      30Ap     0.204179    11App    0.204966    31Ap     0.211696  
      32Ap     0.253824    33Ap     0.277667    34Ap     0.279686  
      12App    0.287582    13App    0.289497    35Ap     0.303497  
      14App    0.348626    36Ap     0.353370    37Ap     0.363043  
      38Ap     0.379984    15App    0.397077    39Ap     0.418193  
      16App    0.446203    40Ap     0.476681    17App    0.517357  
      41Ap     0.542255    42Ap     0.552933    18App    0.555532  
      43Ap     0.559481    44Ap     0.565067    19App    0.567067  
      45Ap     0.572246    20App    0.579361    46Ap     0.589785  
      47Ap     0.621153    21App    0.625437    48Ap     0.632843  
      49Ap     0.635888    22App    0.643517    50Ap     0.649655  
      51Ap     0.661269    23App    0.676198    52Ap     0.682717  
      53Ap     0.724206    24App    0.729586    25App    0.737942  
      54Ap     0.790404    55Ap     0.795312    26App    0.795395  
      27App    0.808680    56Ap     0.825742    57Ap     0.846269  
      58Ap     0.857998    59Ap     0.936935    28App    0.943748  
      29App    0.981504    60Ap     1.009271    30App    1.041892  
      61Ap     1.051790    31App    1.121674    62Ap     1.126570  
      63Ap     1.139321    64Ap     1.167484    65Ap     1.191473  
      32App    1.209084    33App    1.219657    66Ap     1.314737  
      67Ap     1.330886    68Ap     1.398373    69Ap     1.499822  
      70Ap     1.774761    34App    1.784407    35App    1.813316  
      71Ap     1.825498    36App    1.849053    72Ap     1.855798  
      37App    1.867247    73Ap     1.869336    74Ap     1.901199  
      38App    1.933808    75Ap     1.952207    76Ap     1.979099  
      77Ap     1.985423    39App    1.992826    78Ap     2.000559  
      40App    2.002119    41App    2.023539    79Ap     2.026568  
      42App    2.048808    80Ap     2.056983    43App    2.071879  
      81Ap     2.113035    82Ap     2.134638    44App    2.152912  
      83Ap     2.155567    45App    2.165442    84Ap     2.173763  
      46App    2.239431    47App    2.244361    85Ap     2.248048  
      86Ap     2.260529    87Ap     2.280127    48App    2.281097  
      49App    2.325262    88Ap     2.363251    89Ap     2.375501  
      90Ap     2.438797    91Ap     2.450500    92Ap     2.483309  
      50App    2.519023    93Ap     2.526287    51App    2.583739  
      94Ap     2.698734    95Ap     3.572929    96Ap     3.677291  
      97Ap     4.732542    98Ap     5.149213    99Ap     5.601286  

    Beta Occupied:                                                        

       1Ap   -89.201103     2Ap   -89.104407     3Ap   -89.096705  
       4Ap    -8.197097     5Ap    -8.110238     6Ap    -8.101104  
       7Ap    -6.144810     1App   -6.144337     8Ap    -6.140512  
       9Ap    -6.059980     2App   -6.057083    10Ap    -6.051451  
      11Ap    -6.050099     3App   -6.047800    12Ap    -6.040787  
      13Ap    -0.954886    14Ap    -0.823720    15Ap    -0.702200  
      16Ap    -0.510796    17Ap    -0.483618     4App   -0.473553  
      18Ap    -0.353748     5App   -0.350585    19Ap    -0.349077  

    Beta Virtual:                                                         

       6App   -0.124733    20Ap    -0.018296    21Ap     0.035351  
      22Ap     0.068127    23Ap     0.076758    24Ap     0.079897  
       7App    0.089326    25Ap     0.107712    26Ap     0.109457  
       8App    0.113790    27Ap     0.116018     9App    0.119987  
      28Ap     0.135712    29Ap     0.183194    10App    0.187046  
      30Ap     0.204179    11App    0.204966    31Ap     0.211696  
      32Ap     0.253824    33Ap     0.277667    34Ap     0.279686  
      12App    0.287582    13App    0.289497    35Ap     0.303497  
      14App    0.348626    36Ap     0.353370    37Ap     0.363043  
      38Ap     0.379984    15App    0.397077    39Ap     0.418193  
      16App    0.446203    40Ap     0.476681    17App    0.517357  
      41Ap     0.542255    42Ap     0.552933    18App    0.555532  
      43Ap     0.559481    44Ap     0.565067    19App    0.567067  
      45Ap     0.572246    20App    0.579361    46Ap     0.589785  
      47Ap     0.621153    21App    0.625437    48Ap     0.632843  
      49Ap     0.635888    22App    0.643517    50Ap     0.649655  
      51Ap     0.661269    23App    0.676198    52Ap     0.682717  
      53Ap     0.724206    24App    0.729586    25App    0.737942  
      54Ap     0.790404    55Ap     0.795312    26App    0.795395  
      27App    0.808680    56Ap     0.825742    57Ap     0.846269  
      58Ap     0.857998    59Ap     0.936935    28App    0.943748  
      29App    0.981504    60Ap     1.009271    30App    1.041892  
      61Ap     1.051790    31App    1.121674    62Ap     1.126570  
      63Ap     1.139321    64Ap     1.167484    65Ap     1.191473  
      32App    1.209084    33App    1.219657    66Ap     1.314737  
      67Ap     1.330886    68Ap     1.398373    69Ap     1.499822  
      70Ap     1.774761    34App    1.784407    35App    1.813316  
      71Ap     1.825498    36App    1.849053    72Ap     1.855798  
      37App    1.867247    73Ap     1.869336    74Ap     1.901199  
      38App    1.933808    75Ap     1.952207    76Ap     1.979099  
      77Ap     1.985423    39App    1.992826    78Ap     2.000559  
      40App    2.002119    41App    2.023539    79Ap     2.026568  
      42App    2.048808    80Ap     2.056983    43App    2.071879  
      81Ap     2.113035    82Ap     2.134638    44App    2.152912  
      83Ap     2.155567    45App    2.165442    84Ap     2.173763  
      46App    2.239431    47App    2.244361    85Ap     2.248048  
      86Ap     2.260529    87Ap     2.280127    48App    2.281097  
      49App    2.325262    88Ap     2.363251    89Ap     2.375501  
      90Ap     2.438797    91Ap     2.450500    92Ap     2.483309  
      50App    2.519023    93Ap     2.526287    51App    2.583739  
      94Ap     2.698734    95Ap     3.572929    96Ap     3.677291  
      97Ap     4.732542    98Ap     5.149213    99Ap     5.601286  

    Final Occupation by Irrep:
             Ap   App 
    DOCC [    19,    5 ]
    SOCC [     0,    0 ]

  @DF-UKS Final Energy: -1194.57310051874310

   => Energetics <=

    Nuclear Repulsion Energy =            170.3929396686404800
    One-Electron Energy =               -1988.1680255322971789
    Two-Electron Energy =                 679.3758813195667017
    DFT Exchange-Correlation Energy =     -56.1736164147806036
    Empirical Dispersion Energy =          -0.0002795598724586
    VV10 Nonlocal Energy =                  0.0000000000000000
    Total Energy =                      -1194.5731005187431037

  UHF NO Occupations:
  HONO-2 :   17 Ap 2.0000000
  HONO-1 :   18 Ap 2.0000000
  HONO-0 :   19 Ap 2.0000000
  LUNO+0 :   20 Ap 0.0000000
  LUNO+1 :   21 Ap 0.0000000
  LUNO+2 :    6App 0.0000000
  LUNO+3 :   22 Ap 0.0000000


Computation Completed


Properties will be evaluated at   0.000000,   0.000000,   0.000000 [a0]

Properties computed using the SCF density matrix

  Nuclear Dipole Moment: [e a0]
     X:     0.0000      Y:    -0.0000      Z:     0.0000

  Electronic Dipole Moment: [e a0]
     X:     0.2944      Y:    -0.0222      Z:     0.0000

  Dipole Moment: [e a0]
     X:     0.2944      Y:    -0.0222      Z:     0.0000     Total:     0.2952

  Dipole Moment: [D]
     X:     0.7483      Y:    -0.0565      Z:     0.0000     Total:     0.7504


*** tstop() called on c2-18.compute.lan at Tue Feb  2 14:44:01 2021
Module time:
	user time   =      88.11 seconds =       1.47 minutes
	system time =      57.22 seconds =       0.95 minutes
	total time  =        255 seconds =       4.25 minutes
Total time:
	user time   =      88.11 seconds =       1.47 minutes
	system time =      57.22 seconds =       0.95 minutes
	total time  =        255 seconds =       4.25 minutes

*** tstart() called on c2-18.compute.lan
*** at Tue Feb  2 14:44:01 2021


         ------------------------------------------------------------
                                   SCF GRAD                          
                          Rob Parrish, Justin Turney,                
                       Andy Simmonett, and Alex Sokolov              
         ------------------------------------------------------------

  ==> Geometry <==

    Molecular point group: cs
    Full point group: Cs

    Geometry (in Angstrom), charge = 0, multiplicity = 1:

       Center              X                  Y                   Z               Mass       
    ------------   -----------------  -----------------  -----------------  -----------------
         S            0.606217782649     0.316666666667     0.000000000000    31.972071174400
         S            0.606217782649    -1.683333333333     0.000000000000    31.972071174400
         S           -1.212435565298     1.366666666667     0.000000000000    31.972071174400

  Nuclear repulsion =  170.392939668640480

  ==> Basis Set <==

  Basis Set: AUG-CC-PVTZ
    Blend: AUG-CC-PVTZ
    Number of shells: 48
    Number of basis function: 150
    Number of Cartesian functions: 177
    Spherical Harmonics?: true
    Max angular momentum: 3

  ==> DFJKGrad: Density-Fitted SCF Gradients <==

    Gradient:                    1
    J tasked:                  Yes
    K tasked:                  Yes
    wK tasked:                 Yes
    Omega:               2.000E-01
    OpenMP threads:              1
    Integrals threads:           1
    Memory [MiB]:             7152
    Schwarz Cutoff:          0E+00
    Fitting Condition:       1E-10

   => Auxiliary Basis Set <=

  Basis Set: (AUG-CC-PVTZ AUX)
    Blend: AUG-CC-PVTZ-JKFIT
    Number of shells: 126
    Number of basis function: 438
    Number of Cartesian functions: 540
    Spherical Harmonics?: true
    Max angular momentum: 4

  ==> DFT Potential <==

   => Composite Functional: WB97X-D <= 

    wB97X-D Hyb-GGA Exchange-Correlation Functional

    J.-D. Chai and M. Head-Gordon, Phys. Chem. Chem. Phys. 10, 6615 (2008)

    Deriv               =              1
    GGA                 =           TRUE
    Meta                =          FALSE

    Exchange Hybrid     =           TRUE
    MP2 Hybrid          =          FALSE

   => Exchange-Correlation Functionals <=

    1.0000   wB97D range-separated functional

   => Exact (HF) Exchange <=

    0.7780            HF,LR [omega = 0.2000]
    0.2220               HF 

   => Molecular Quadrature <=

    Radial Scheme          =       TREUTLER
    Pruning Scheme         =           NONE
    Nuclear Scheme         =       TREUTLER

    BS radius alpha        =              1
    Pruning alpha          =              1
    Radial Points          =             99
    Spherical Points       =            590
    Total Points           =         169927
    Total Blocks           =           1392
    Max Points             =            256
    Max Functions          =            150
    Weights Tolerance      =       1.00E-15


  -Total Gradient:
     Atom            X                  Y                   Z
    ------   -----------------  -----------------  -----------------
       1        0.050912248982     0.008061202431     0.000000000000
       2        0.005349613476    -0.046397020239     0.000000000000
       3       -0.056246284530     0.038349457679     0.000000000000


*** tstop() called on c2-18.compute.lan at Tue Feb  2 14:44:32 2021
Module time:
	user time   =      18.93 seconds =       0.32 minutes
	system time =       0.20 seconds =       0.00 minutes
	total time  =         31 seconds =       0.52 minutes
Total time:
	user time   =     107.04 seconds =       1.78 minutes
	system time =      57.42 seconds =       0.96 minutes
	total time  =        286 seconds =       4.77 minutes

			-----------------------------------------
			 OPTKING 2.0: for geometry optimizations 
			  - R.A. King,  Bethel University        
			-----------------------------------------

	Internal coordinates to be generated automatically.
	Detected frag 1 with atoms:  1 2 3
	---Fragment 1 Bond Connectivity---
	 1 : 2 3
	 2 : 1
	 3 : 1

	---Fragment 1 Geometry and Gradient---
	 S           1.1455855816        0.5984132731        0.0000000000
	 S           1.1455855816       -3.1810389779        0.0000000000
	 S          -2.2911711632        2.5826257048        0.0000000000
	             0.0509122490        0.0080612024        0.0000000000
	             0.0053496135       -0.0463970202        0.0000000000
	            -0.0562462845        0.0383494577        0.0000000000

	Previous optimization step data not found.  Starting new optimization.

	---Fragment 1 Intrafragment Coordinates---
	 - Coordinate -           - BOHR/RAD -       - ANG/DEG -
	 R(1,2)           =         3.779452	       2.000000
	 R(1,3)           =         3.968425	       2.100000
	 B(2,1,3)         =         2.094395	     120.000000

	Current energy   :     -1194.5731005187

	Generating empirical Hessian (Schlegel '84) for each fragment.
	Taking RFO optimization step.
	Going to follow RFO solution 1.
	Using RFO vector 1.
	Norm of target step-size    0.28531
	Projected energy change by RFO approximation:         0.0056845397

	Back-transformation to cartesian coordinates...
	Successfully converged to displaced geometry.

	--- Internal Coordinate Step in ANG or DEG, aJ/ANG or AJ/DEG ---
	 ---------------------------------------------------------------------------
	   Coordinate                Previous        Force       Change         New 
	   ----------                --------       ------       ------       ------
	    1 R(1,2)          =      2.000000    -0.382302    -0.066389     1.933611
	    2 R(1,3)          =      2.100000    -0.559296    -0.129874     1.970126
	    3 B(2,1,3)        =    120.000000    -0.001536    -4.221064   115.778936
	 ---------------------------------------------------------------------------
	Successfully symmetrized geometry.

  ==> Convergence Check <==

  Measures of convergence in internal coordinates in au.
  Criteria marked as inactive (o), active & met (*), and active & unmet ( ).
  --------------------------------------------------------------------------------------------- ~
   Step     Total Energy     Delta E     MAX Force     RMS Force      MAX Disp      RMS Disp    ~
  --------------------------------------------------------------------------------------------- ~
    Convergence Criteria             o    2.00e-06 *    1.00e-06 *    6.00e-06 *    4.00e-06 *  ~
  --------------------------------------------------------------------------------------------- ~
      1   -1194.57310052   -1.19e+03 o    6.79e-02      4.89e-02      2.45e-01      1.65e-01    ~
  ---------------------------------------------------------------------------------------------

	Writing optimization data to binary file.
	Structure for next step:
	Cartesian Geometry (in Angstrom)
	    S     0.6026941013   0.3395456344   0.0000000000
	    S     0.5399154168  -1.5930461577   0.0000000000
	    S    -1.1426095180   1.2535005233   0.0000000000
			--------------------------
			 OPTKING Finished Execution 
			--------------------------

    Structure for next step:
    Molecular point group: cs
    Full point group: Cs

    Geometry (in Angstrom), charge = 0, multiplicity = 1:

    S       
    S             1          r1
    S             1          r2      2          a1

    a1        =  115.7789363907
    r1        =    1.9336111883
    r2        =    1.9701264662

gradient() will perform analytic gradient computation.

*** tstart() called on c2-18.compute.lan
*** at Tue Feb  2 14:44:33 2021

   => Loading Basis Set <=

    Name: AUG-CC-PVTZ
    Role: ORBITAL
    Keyword: BASIS
    atoms 1-3 entry S          line   906 file /apps/gb/PSI4/1.4.0/share/psi4/basis/aug-cc-pvtz.gbs 

   => WB97X-D: Empirical Dispersion <=

    Chai and Head-Gordon Dispersion Correction
    Chai, J.-D.; Head-Gordon, M. (2010), J. Chem. Phys., 132: 6615-6620

        s6 =       1.000000


         ---------------------------------------------------------
                                   SCF
               by Justin Turney, Rob Parrish, Andy Simmonett
                          and Daniel G. A. Smith
                              UKS Reference
                        1 Threads,   9536 MiB Core
         ---------------------------------------------------------

  ==> Geometry <==

    Molecular point group: cs
    Full point group: Cs

    Geometry (in Angstrom), charge = 0, multiplicity = 1:

       Center              X                  Y                   Z               Mass       
    ------------   -----------------  -----------------  -----------------  -----------------
         S            0.591352315754     0.358934339334     0.000000000000    31.972071174400
         S            0.591352315754    -1.574676848999     0.000000000000    31.972071174400
         S           -1.182704631508     1.215742509665     0.000000000000    31.972071174400

  Running in cs symmetry.

  Rotational constants: A =      0.73492  B =      0.09644  C =      0.08525 [cm^-1]
  Rotational constants: A =  22032.33232  B =   2891.21390  C =   2555.82352 [MHz]
  Nuclear repulsion =  179.791223488913772

  Charge       = 0
  Multiplicity = 1
  Electrons    = 48
  Nalpha       = 24
  Nbeta        = 24

  ==> Algorithm <==

  SCF Algorithm Type is DF.
  DIIS enabled.
  MOM disabled.
  Fractional occupation disabled.
  Guess Type is READ.
  Energy threshold   = 1.00e-08
  Density threshold  = 1.00e-08
  Integral threshold = 0.00e+00

  ==> Primary Basis <==

  Basis Set: AUG-CC-PVTZ
    Blend: AUG-CC-PVTZ
    Number of shells: 48
    Number of basis function: 150
    Number of Cartesian functions: 177
    Spherical Harmonics?: true
    Max angular momentum: 3

  ==> DFT Potential <==

   => Composite Functional: WB97X-D <= 

    wB97X-D Hyb-GGA Exchange-Correlation Functional

    J.-D. Chai and M. Head-Gordon, Phys. Chem. Chem. Phys. 10, 6615 (2008)

    Deriv               =              1
    GGA                 =           TRUE
    Meta                =          FALSE

    Exchange Hybrid     =           TRUE
    MP2 Hybrid          =          FALSE

   => Exchange-Correlation Functionals <=

    1.0000   wB97D range-separated functional

   => Exact (HF) Exchange <=

    0.7780            HF,LR [omega = 0.2000]
    0.2220               HF 

   => Molecular Quadrature <=

    Radial Scheme          =       TREUTLER
    Pruning Scheme         =           NONE
    Nuclear Scheme         =       TREUTLER

    BS radius alpha        =              1
    Pruning alpha          =              1
    Radial Points          =             99
    Spherical Points       =            590
    Total Points           =         169897
    Total Blocks           =           1390
    Max Points             =            256
    Max Functions          =            150
    Weights Tolerance      =       1.00E-15

   => Loading Basis Set <=

    Name: (AUG-CC-PVTZ AUX)
    Role: JKFIT
    Keyword: DF_BASIS_SCF
    atoms 1-3 entry S          line   730 file /apps/gb/PSI4/1.4.0/share/psi4/basis/aug-cc-pvtz-jkfit.gbs 

   => Loading Basis Set <=

    Name: AUG-CC-PVTZ
    Role: ORBITAL
    Keyword: BASIS
    atoms 1-3 entry S          line   906 file /apps/gb/PSI4/1.4.0/share/psi4/basis/aug-cc-pvtz.gbs 

  Reading orbitals from file 180, no projection.

  ==> Pre-Iterations <==

   -------------------------------------------------------
    Irrep   Nso     Nmo     Nalpha   Nbeta   Ndocc  Nsocc
   -------------------------------------------------------
     A'        99      99       0       0       0       0
     A"        51      51       0       0       0       0
   -------------------------------------------------------
    Total     150     150      24      24      24       0
   -------------------------------------------------------

  ==> Integral Setup <==

  ==> DiskDFJK: Density-Fitted J/K Matrices <==

    J tasked:                  Yes
    K tasked:                  Yes
    wK tasked:                 Yes
    Omega:               2.000E-01
    OpenMP threads:              1
    Integrals threads:           1
    Memory [MiB]:             6481
    Algorithm:                Core
    Integral Cache:           NONE
    Schwarz Cutoff:          1E-12
    Fitting Condition:       1E-10

   => Auxiliary Basis Set <=

  Basis Set: (AUG-CC-PVTZ AUX)
    Blend: AUG-CC-PVTZ-JKFIT
    Number of shells: 126
    Number of basis function: 438
    Number of Cartesian functions: 540
    Spherical Harmonics?: true
    Max angular momentum: 4

  Cached 100.0% of DFT collocation blocks in 0.656 [GiB].

  Minimum eigenvalue in the overlap matrix is 1.9103858553E-04.
  Using Symmetric Orthogonalization.

  SCF Guess: Orbitals guess was supplied from a previous computation.

  ==> Iterations <==

                           Total Energy        Delta E     RMS |[F,P]|

   @DF-UKS iter   0: -1194.66747782483117   -1.19467e+03   3.62225e-03 
   @DF-UKS iter   1: -1194.58655787801081    8.09199e-02   6.28130e-04 DIIS
   @DF-UKS iter   2: -1194.58538590260878    1.17198e-03   8.00011e-04 DIIS
   @DF-UKS iter   3: -1194.58991732064010   -4.53142e-03   9.58980e-05 DIIS
   @DF-UKS iter   4: -1194.58998699479343   -6.96742e-05   4.02690e-05 DIIS
   @DF-UKS iter   5: -1194.59000457698539   -1.75822e-05   2.82246e-05 DIIS
   @DF-UKS iter   6: -1194.59001316841159   -8.59143e-06   5.23352e-06 DIIS
   @DF-UKS iter   7: -1194.59001379298434   -6.24573e-07   1.37997e-06 DIIS
   @DF-UKS iter   8: -1194.59001385903866   -6.60543e-08   4.03862e-07 DIIS
   @DF-UKS iter   9: -1194.59001386299406   -3.95539e-09   1.21673e-07 DIIS
   @DF-UKS iter  10: -1194.59001386335922   -3.65162e-10   4.44284e-08 DIIS
   @DF-UKS iter  11: -1194.59001386341561   -5.63887e-11   1.56681e-08 DIIS
   @DF-UKS iter  12: -1194.59001386342652   -1.09139e-11   7.09992e-09 DIIS
  Energy and wave function converged.


  ==> Post-Iterations <==

   @Spin Contamination Metric:   7.460698725E-14
   @S^2 Expected:                0.000000000E+00
   @S^2 Observed:                7.460698725E-14
   @S   Expected:                0.000000000E+00
   @S   Observed:                0.000000000E+00

    Orbital Energies [Eh]
    ---------------------

    Alpha Occupied:                                                       

       1Ap   -89.196211     2Ap   -89.091674     3Ap   -89.088841  
       4Ap    -8.194374     5Ap    -8.099800     6Ap    -8.096165  
       7Ap    -6.141976     1App   -6.141781     8Ap    -6.137439  
       9Ap    -6.049190     2App   -6.046521    10Ap    -6.045795  
       3App   -6.042845    11Ap    -6.039702    12Ap    -6.036034  
      13Ap    -0.980710    14Ap    -0.836248    15Ap    -0.689235  
      16Ap    -0.515719    17Ap    -0.496720     4App   -0.488218  
       5App   -0.353868    18Ap    -0.351495    19Ap    -0.347807  

    Alpha Virtual:                                                        

       6App   -0.110149    20Ap     0.016288    21Ap     0.047393  
      22Ap     0.068707    23Ap     0.080308    24Ap     0.084013  
       7App    0.088452    25Ap     0.106941    26Ap     0.108829  
       8App    0.113777    27Ap     0.117345     9App    0.118592  
      28Ap     0.139477    29Ap     0.185553    10App    0.188933  
      30Ap     0.205286    11App    0.207112    31Ap     0.215685  
      32Ap     0.259040    33Ap     0.279396    34Ap     0.280403  
      12App    0.290498    35Ap     0.295110    13App    0.300034  
      14App    0.351052    36Ap     0.363238    37Ap     0.368379  
      38Ap     0.396470    15App    0.398062    39Ap     0.421197  
      16App    0.444113    40Ap     0.481768    17App    0.516955  
      41Ap     0.537067    42Ap     0.549311    18App    0.551430  
      43Ap     0.557801    44Ap     0.562519    19App    0.567826  
      20App    0.572351    45Ap     0.573076    46Ap     0.586994  
      47Ap     0.611103    21App    0.624735    48Ap     0.636360  
      49Ap     0.643202    22App    0.646624    50Ap     0.659049  
      51Ap     0.675423    52Ap     0.694563    23App    0.699101  
      24App    0.743316    53Ap     0.749395    25App    0.752080  
      54Ap     0.806929    55Ap     0.808499    26App    0.810410  
      27App    0.814386    56Ap     0.847093    57Ap     0.883519  
      58Ap     0.893155    59Ap     0.981198    28App    0.992823  
      29App    1.002335    60Ap     1.036224    30App    1.056268  
      61Ap     1.067845    31App    1.138022    62Ap     1.151894  
      63Ap     1.168670    64Ap     1.184763    32App    1.218756  
      65Ap     1.225184    33App    1.227588    66Ap     1.324437  
      67Ap     1.344416    68Ap     1.427694    69Ap     1.492067  
      70Ap     1.774345    34App    1.783059    35App    1.812531  
      71Ap     1.825831    36App    1.854581    72Ap     1.854951  
      73Ap     1.865040    37App    1.867412    74Ap     1.889906  
      38App    1.922735    75Ap     1.933047    76Ap     1.971871  
      77Ap     1.979971    78Ap     1.989399    39App    1.990924  
      40App    2.004902    79Ap     2.020454    41App    2.028761  
      80Ap     2.051425    42App    2.055302    43App    2.066226  
      81Ap     2.120030    82Ap     2.135483    44App    2.159852  
      45App    2.175520    83Ap     2.189918    84Ap     2.193503  
      46App    2.245003    85Ap     2.275213    47App    2.296621  
      48App    2.310844    86Ap     2.312860    87Ap     2.333697  
      49App    2.373969    88Ap     2.410400    89Ap     2.417388  
      90Ap     2.495133    91Ap     2.535011    50App    2.608232  
      92Ap     2.629559    51App    2.632232    93Ap     2.666681  
      94Ap     2.752758    95Ap     3.641903    96Ap     3.739714  
      97Ap     4.874617    98Ap     5.295253    99Ap     5.648569  

    Beta Occupied:                                                        

       1Ap   -89.196211     2Ap   -89.091674     3Ap   -89.088841  
       4Ap    -8.194374     5Ap    -8.099800     6Ap    -8.096165  
       7Ap    -6.141976     1App   -6.141781     8Ap    -6.137439  
       9Ap    -6.049190     2App   -6.046521    10Ap    -6.045795  
       3App   -6.042845    11Ap    -6.039702    12Ap    -6.036034  
      13Ap    -0.980710    14Ap    -0.836248    15Ap    -0.689235  
      16Ap    -0.515719    17Ap    -0.496720     4App   -0.488218  
       5App   -0.353868    18Ap    -0.351495    19Ap    -0.347807  

    Beta Virtual:                                                         

       6App   -0.110149    20Ap     0.016288    21Ap     0.047393  
      22Ap     0.068707    23Ap     0.080308    24Ap     0.084013  
       7App    0.088452    25Ap     0.106941    26Ap     0.108829  
       8App    0.113777    27Ap     0.117345     9App    0.118592  
      28Ap     0.139477    29Ap     0.185553    10App    0.188933  
      30Ap     0.205286    11App    0.207112    31Ap     0.215685  
      32Ap     0.259040    33Ap     0.279396    34Ap     0.280403  
      12App    0.290498    35Ap     0.295110    13App    0.300034  
      14App    0.351052    36Ap     0.363238    37Ap     0.368379  
      38Ap     0.396470    15App    0.398062    39Ap     0.421197  
      16App    0.444113    40Ap     0.481768    17App    0.516955  
      41Ap     0.537067    42Ap     0.549311    18App    0.551430  
      43Ap     0.557801    44Ap     0.562519    19App    0.567826  
      20App    0.572351    45Ap     0.573076    46Ap     0.586994  
      47Ap     0.611103    21App    0.624735    48Ap     0.636360  
      49Ap     0.643202    22App    0.646624    50Ap     0.659049  
      51Ap     0.675423    52Ap     0.694563    23App    0.699101  
      24App    0.743316    53Ap     0.749395    25App    0.752080  
      54Ap     0.806929    55Ap     0.808499    26App    0.810410  
      27App    0.814386    56Ap     0.847093    57Ap     0.883519  
      58Ap     0.893155    59Ap     0.981198    28App    0.992823  
      29App    1.002335    60Ap     1.036224    30App    1.056268  
      61Ap     1.067845    31App    1.138022    62Ap     1.151894  
      63Ap     1.168670    64Ap     1.184763    32App    1.218756  
      65Ap     1.225184    33App    1.227588    66Ap     1.324437  
      67Ap     1.344416    68Ap     1.427694    69Ap     1.492067  
      70Ap     1.774345    34App    1.783059    35App    1.812531  
      71Ap     1.825831    36App    1.854581    72Ap     1.854951  
      73Ap     1.865040    37App    1.867412    74Ap     1.889906  
      38App    1.922735    75Ap     1.933047    76Ap     1.971871  
      77Ap     1.979971    78Ap     1.989399    39App    1.990924  
      40App    2.004902    79Ap     2.020454    41App    2.028761  
      80Ap     2.051425    42App    2.055302    43App    2.066226  
      81Ap     2.120030    82Ap     2.135483    44App    2.159852  
      45App    2.175520    83Ap     2.189918    84Ap     2.193503  
      46App    2.245003    85Ap     2.275213    47App    2.296621  
      48App    2.310844    86Ap     2.312860    87Ap     2.333697  
      49App    2.373969    88Ap     2.410400    89Ap     2.417388  
      90Ap     2.495133    91Ap     2.535011    50App    2.608232  
      92Ap     2.629559    51App    2.632232    93Ap     2.666681  
      94Ap     2.752758    95Ap     3.641903    96Ap     3.739714  
      97Ap     4.874617    98Ap     5.295253    99Ap     5.648569  

    Final Occupation by Irrep:
             Ap   App 
    DOCC [    19,    5 ]
    SOCC [     0,    0 ]

  @DF-UKS Final Energy: -1194.59001386342652

   => Energetics <=

    Nuclear Repulsion Energy =            179.7912234889137721
    One-Electron Energy =               -2007.0409396148911583
    Two-Electron Energy =                 688.8941046951694034
    DFT Exchange-Correlation Energy =     -56.2341913608916215
    Empirical Dispersion Energy =          -0.0002110717269188
    VV10 Nonlocal Energy =                  0.0000000000000000
    Total Energy =                      -1194.5900138634265204

  UHF NO Occupations:
  HONO-2 :   17 Ap 2.0000000
  HONO-1 :   18 Ap 2.0000000
  HONO-0 :   19 Ap 2.0000000
  LUNO+0 :   20 Ap 0.0000000
  LUNO+1 :   21 Ap 0.0000000
  LUNO+2 :   22 Ap 0.0000000
  LUNO+3 :   23 Ap 0.0000000


Computation Completed


Properties will be evaluated at   0.000000,   0.000000,   0.000000 [a0]

Properties computed using the SCF density matrix

  Nuclear Dipole Moment: [e a0]
     X:     0.0000      Y:     0.0000      Z:     0.0000

  Electronic Dipole Moment: [e a0]
     X:     0.2419      Y:     0.0742      Z:     0.0000

  Dipole Moment: [e a0]
     X:     0.2419      Y:     0.0742      Z:     0.0000     Total:     0.2530

  Dipole Moment: [D]
     X:     0.6149      Y:     0.1886      Z:     0.0000     Total:     0.6431


*** tstop() called on c2-18.compute.lan at Tue Feb  2 14:46:21 2021
Module time:
	user time   =      78.02 seconds =       1.30 minutes
	system time =       0.54 seconds =       0.01 minutes
	total time  =        108 seconds =       1.80 minutes
Total time:
	user time   =     185.07 seconds =       3.08 minutes
	system time =      57.97 seconds =       0.97 minutes
	total time  =        395 seconds =       6.58 minutes

*** tstart() called on c2-18.compute.lan
*** at Tue Feb  2 14:46:21 2021


         ------------------------------------------------------------
                                   SCF GRAD                          
                          Rob Parrish, Justin Turney,                
                       Andy Simmonett, and Alex Sokolov              
         ------------------------------------------------------------

  ==> Geometry <==

    Molecular point group: cs
    Full point group: Cs

    Geometry (in Angstrom), charge = 0, multiplicity = 1:

       Center              X                  Y                   Z               Mass       
    ------------   -----------------  -----------------  -----------------  -----------------
         S            0.591352315754     0.358934339334     0.000000000000    31.972071174400
         S            0.591352315754    -1.574676848999     0.000000000000    31.972071174400
         S           -1.182704631508     1.215742509665     0.000000000000    31.972071174400

  Nuclear repulsion =  179.791223488913772

  ==> Basis Set <==

  Basis Set: AUG-CC-PVTZ
    Blend: AUG-CC-PVTZ
    Number of shells: 48
    Number of basis function: 150
    Number of Cartesian functions: 177
    Spherical Harmonics?: true
    Max angular momentum: 3

  ==> DFJKGrad: Density-Fitted SCF Gradients <==

    Gradient:                    1
    J tasked:                  Yes
    K tasked:                  Yes
    wK tasked:                 Yes
    Omega:               2.000E-01
    OpenMP threads:              1
    Integrals threads:           1
    Memory [MiB]:             7152
    Schwarz Cutoff:          0E+00
    Fitting Condition:       1E-10

   => Auxiliary Basis Set <=

  Basis Set: (AUG-CC-PVTZ AUX)
    Blend: AUG-CC-PVTZ-JKFIT
    Number of shells: 126
    Number of basis function: 438
    Number of Cartesian functions: 540
    Spherical Harmonics?: true
    Max angular momentum: 4

  ==> DFT Potential <==

   => Composite Functional: WB97X-D <= 

    wB97X-D Hyb-GGA Exchange-Correlation Functional

    J.-D. Chai and M. Head-Gordon, Phys. Chem. Chem. Phys. 10, 6615 (2008)

    Deriv               =              1
    GGA                 =           TRUE
    Meta                =          FALSE

    Exchange Hybrid     =           TRUE
    MP2 Hybrid          =          FALSE

   => Exchange-Correlation Functionals <=

    1.0000   wB97D range-separated functional

   => Exact (HF) Exchange <=

    0.7780            HF,LR [omega = 0.2000]
    0.2220               HF 

   => Molecular Quadrature <=

    Radial Scheme          =       TREUTLER
    Pruning Scheme         =           NONE
    Nuclear Scheme         =       TREUTLER

    BS radius alpha        =              1
    Pruning alpha          =              1
    Radial Points          =             99
    Spherical Points       =            590
    Total Points           =         169897
    Total Blocks           =           1390
    Max Points             =            256
    Max Functions          =            150
    Weights Tolerance      =       1.00E-15


  -Total Gradient:
     Atom            X                  Y                   Z
    ------   -----------------  -----------------  -----------------
       1        0.026793288873     0.002762043156     0.000000000000
       2       -0.001068404021    -0.014086282777     0.000000000000
       3       -0.025706794661     0.011252937302     0.000000000000


*** tstop() called on c2-18.compute.lan at Tue Feb  2 14:46:44 2021
Module time:
	user time   =      18.92 seconds =       0.32 minutes
	system time =       0.12 seconds =       0.00 minutes
	total time  =         23 seconds =       0.38 minutes
Total time:
	user time   =     204.00 seconds =       3.40 minutes
	system time =      58.09 seconds =       0.97 minutes
	total time  =        418 seconds =       6.97 minutes

			-----------------------------------------
			 OPTKING 2.0: for geometry optimizations 
			  - R.A. King,  Bethel University        
			-----------------------------------------

	Previous internal coordinate definitions found.
	---Fragment 1 Geometry and Gradient---
	 S           1.1174939204        0.6782875984        0.0000000000
	 S           1.1174939204       -2.9757079807        0.0000000000
	 S          -2.2349878409        2.2974203823        0.0000000000
	             0.0267932889        0.0027620432        0.0000000000
	            -0.0010684040       -0.0140862828        0.0000000000
	            -0.0257067947        0.0112529373        0.0000000000

	---Fragment 1 Intrafragment Coordinates---
	 - Coordinate -           - BOHR/RAD -       - ANG/DEG -
	 R(1,2)           =         3.653996	       1.933611
	 R(1,3)           =         3.722999	       1.970126
	 B(2,1,3)         =         2.020724	     115.778936

	Current energy   :     -1194.5900138634

	Energy change for the previous step:
		Projected    :         0.0056845397
		Actual       :        -0.0169133447

	Performing BFGS update.
	Previous computed or guess Hessian on step 1.
	Steps to be used in Hessian update: 1
	Taking RFO optimization step.
	Going to follow RFO solution 1.
	Using RFO vector 1.
	Norm of target step-size    0.17905
	Projected energy change by RFO approximation:        -0.0005832915

	Back-transformation to cartesian coordinates...
	Successfully converged to displaced geometry.

	--- Internal Coordinate Step in ANG or DEG, aJ/ANG or AJ/DEG ---
	 ---------------------------------------------------------------------------
	   Coordinate                Previous        Force       Change         New 
	   ----------                --------       ------       ------       ------
	    1 R(1,2)          =      1.933611    -0.115816    -0.033290     1.900321
	    2 R(1,3)          =      1.970126    -0.231203    -0.087886     1.882241
	    3 B(2,1,3)        =    115.778936     0.000295     1.304938   117.083874
	 ---------------------------------------------------------------------------
	Successfully symmetrized geometry.

  ==> Convergence Check <==

  Measures of convergence in internal coordinates in au.
  Criteria marked as inactive (o), active & met (*), and active & unmet ( ).
  ---------------------------------------------------------------------------------------------
   Step     Total Energy     Delta E     MAX Force     RMS Force      MAX Disp      RMS Disp   
  ---------------------------------------------------------------------------------------------
    Convergence Criteria             o    2.00e-06 *    1.00e-06 *    6.00e-06 *    4.00e-06 *
  ---------------------------------------------------------------------------------------------
      2   -1194.59001386   -1.69e-02 o    2.81e-02      1.83e-02      1.66e-01      1.03e-01    ~
  ---------------------------------------------------------------------------------------------

	Writing optimization data to binary file.
	Structure for next step:
	Cartesian Geometry (in Angstrom)
	    S     0.5527590659   0.3570117843   0.0000000000
	    S     0.5843192206  -1.5430469510   0.0000000000
	    S    -1.1370782865   1.1860351667   0.0000000000
			--------------------------
			 OPTKING Finished Execution 
			--------------------------

    Structure for next step:
    Molecular point group: cs
    Full point group: Cs

    Geometry (in Angstrom), charge = 0, multiplicity = 1:

    S       
    S             1          r1
    S             1          r2      2          a1

    a1        =  117.0838739839
    r1        =    1.9003208333
    r2        =    1.8822407056

gradient() will perform analytic gradient computation.

*** tstart() called on c2-18.compute.lan
*** at Tue Feb  2 14:46:44 2021

   => Loading Basis Set <=

    Name: AUG-CC-PVTZ
    Role: ORBITAL
    Keyword: BASIS
    atoms 1-3 entry S          line   906 file /apps/gb/PSI4/1.4.0/share/psi4/basis/aug-cc-pvtz.gbs 

   => WB97X-D: Empirical Dispersion <=

    Chai and Head-Gordon Dispersion Correction
    Chai, J.-D.; Head-Gordon, M. (2010), J. Chem. Phys., 132: 6615-6620

        s6 =       1.000000


         ---------------------------------------------------------
                                   SCF
               by Justin Turney, Rob Parrish, Andy Simmonett
                          and Daniel G. A. Smith
                              UKS Reference
                        1 Threads,   9536 MiB Core
         ---------------------------------------------------------

  ==> Geometry <==

    Molecular point group: cs
    Full point group: Cs

    Geometry (in Angstrom), charge = 0, multiplicity = 1:

       Center              X                  Y                   Z               Mass       
    ------------   -----------------  -----------------  -----------------  -----------------
         S            0.558612013625     0.347782433098     0.000000000000    31.972071174400
         S            0.558612013625    -1.552538400252     0.000000000000    31.972071174400
         S           -1.117224027250     1.204755967154     0.000000000000    31.972071174400

  Running in cs symmetry.

  Rotational constants: A =      0.81190  B =      0.10129  C =      0.09005 [cm^-1]
  Rotational constants: A =  24340.21863  B =   3036.49608  C =   2699.70226 [MHz]
  Nuclear repulsion =  185.244891092168643

  Charge       = 0
  Multiplicity = 1
  Electrons    = 48
  Nalpha       = 24
  Nbeta        = 24

  ==> Algorithm <==

  SCF Algorithm Type is DF.
  DIIS enabled.
  MOM disabled.
  Fractional occupation disabled.
  Guess Type is READ.
  Energy threshold   = 1.00e-08
  Density threshold  = 1.00e-08
  Integral threshold = 0.00e+00

  ==> Primary Basis <==

  Basis Set: AUG-CC-PVTZ
    Blend: AUG-CC-PVTZ
    Number of shells: 48
    Number of basis function: 150
    Number of Cartesian functions: 177
    Spherical Harmonics?: true
    Max angular momentum: 3

  ==> DFT Potential <==

   => Composite Functional: WB97X-D <= 

    wB97X-D Hyb-GGA Exchange-Correlation Functional

    J.-D. Chai and M. Head-Gordon, Phys. Chem. Chem. Phys. 10, 6615 (2008)

    Deriv               =              1
    GGA                 =           TRUE
    Meta                =          FALSE

    Exchange Hybrid     =           TRUE
    MP2 Hybrid          =          FALSE

   => Exchange-Correlation Functionals <=

    1.0000   wB97D range-separated functional

   => Exact (HF) Exchange <=

    0.7780            HF,LR [omega = 0.2000]
    0.2220               HF 

   => Molecular Quadrature <=

    Radial Scheme          =       TREUTLER
    Pruning Scheme         =           NONE
    Nuclear Scheme         =       TREUTLER

    BS radius alpha        =              1
    Pruning alpha          =              1
    Radial Points          =             99
    Spherical Points       =            590
    Total Points           =         169863
    Total Blocks           =           1382
    Max Points             =            256
    Max Functions          =            150
    Weights Tolerance      =       1.00E-15

   => Loading Basis Set <=

    Name: (AUG-CC-PVTZ AUX)
    Role: JKFIT
    Keyword: DF_BASIS_SCF
    atoms 1-3 entry S          line   730 file /apps/gb/PSI4/1.4.0/share/psi4/basis/aug-cc-pvtz-jkfit.gbs 

   => Loading Basis Set <=

    Name: AUG-CC-PVTZ
    Role: ORBITAL
    Keyword: BASIS
    atoms 1-3 entry S          line   906 file /apps/gb/PSI4/1.4.0/share/psi4/basis/aug-cc-pvtz.gbs 

  Reading orbitals from file 180, no projection.

  ==> Pre-Iterations <==

   -------------------------------------------------------
    Irrep   Nso     Nmo     Nalpha   Nbeta   Ndocc  Nsocc
   -------------------------------------------------------
     A'        99      99       0       0       0       0
     A"        51      51       0       0       0       0
   -------------------------------------------------------
    Total     150     150      24      24      24       0
   -------------------------------------------------------

  ==> Integral Setup <==

  ==> DiskDFJK: Density-Fitted J/K Matrices <==

    J tasked:                  Yes
    K tasked:                  Yes
    wK tasked:                 Yes
    Omega:               2.000E-01
    OpenMP threads:              1
    Integrals threads:           1
    Memory [MiB]:             6476
    Algorithm:                Core
    Integral Cache:           NONE
    Schwarz Cutoff:          1E-12
    Fitting Condition:       1E-10

   => Auxiliary Basis Set <=

  Basis Set: (AUG-CC-PVTZ AUX)
    Blend: AUG-CC-PVTZ-JKFIT
    Number of shells: 126
    Number of basis function: 438
    Number of Cartesian functions: 540
    Spherical Harmonics?: true
    Max angular momentum: 4

  Cached 100.0% of DFT collocation blocks in 0.660 [GiB].

  Minimum eigenvalue in the overlap matrix is 1.6292754908E-04.
  Using Symmetric Orthogonalization.

  SCF Guess: Orbitals guess was supplied from a previous computation.

  ==> Iterations <==

                           Total Energy        Delta E     RMS |[F,P]|

   @DF-UKS iter   0: -1194.64216068038013   -1.19464e+03   2.31045e-03 
   @DF-UKS iter   1: -1194.59045428675336    5.17064e-02   3.66767e-04 DIIS
   @DF-UKS iter   2: -1194.59035549849568    9.87883e-05   4.09652e-04 DIIS
   @DF-UKS iter   3: -1194.59153800537842   -1.18251e-03   7.04441e-05 DIIS
   @DF-UKS iter   4: -1194.59157129911273   -3.32937e-05   1.69381e-05 DIIS
   @DF-UKS iter   5: -1194.59157381860177   -2.51949e-06   1.21820e-05 DIIS
   @DF-UKS iter   6: -1194.59157510440673   -1.28580e-06   2.82266e-06 DIIS
   @DF-UKS iter   7: -1194.59157520214694   -9.77402e-08   6.07846e-07 DIIS
   @DF-UKS iter   8: -1194.59157521435509   -1.22081e-08   2.78962e-07 DIIS
   @DF-UKS iter   9: -1194.59157521633347   -1.97838e-09   1.10546e-07 DIIS
   @DF-UKS iter  10: -1194.59157521670204   -3.68573e-10   3.53613e-08 DIIS
   @DF-UKS iter  11: -1194.59157521673978   -3.77440e-11   1.24305e-08 DIIS
   @DF-UKS iter  12: -1194.59157521674206   -2.27374e-12   3.80143e-09 DIIS
  Energy and wave function converged.


  ==> Post-Iterations <==

   @Spin Contamination Metric:  -1.207922651E-13
   @S^2 Expected:                0.000000000E+00
   @S^2 Observed:               -1.207922651E-13
   @S   Expected:                0.000000000E+00
   @S   Observed:                0.000000000E+00

    Orbital Energies [Eh]
    ---------------------

    Alpha Occupied:                                                       

       1Ap   -89.190990     2Ap   -89.085022     3Ap   -89.083663  
       4Ap    -8.191027     5Ap    -8.095085     6Ap    -8.093207  
       7Ap    -6.138588     1App   -6.138523     8Ap    -6.133699  
       9Ap    -6.044164    10Ap    -6.042409     2App   -6.041678  
       3App   -6.039790    11Ap    -6.035046    12Ap    -6.033165  
      13Ap    -0.998524    14Ap    -0.847654    15Ap    -0.679922  
      16Ap    -0.519499    17Ap    -0.503816     4App   -0.498457  
       5App   -0.357634    18Ap    -0.349315    19Ap    -0.348066  

    Alpha Virtual:                                                        

       6App   -0.099966    20Ap     0.031181    21Ap     0.054260  
      22Ap     0.069118    23Ap     0.080915     7App    0.087856  
      24Ap     0.093772    25Ap     0.106065    26Ap     0.110525  
       8App    0.113296     9App    0.118726    27Ap     0.119243  
      28Ap     0.141546    29Ap     0.185592    10App    0.188365  
      30Ap     0.206456    11App    0.209512    31Ap     0.215053  
      32Ap     0.259171    33Ap     0.280494    34Ap     0.285280  
      35Ap     0.294998    12App    0.295183    13App    0.301593  
      14App    0.353122    36Ap     0.365130    37Ap     0.374396  
      15App    0.401250    38Ap     0.405685    39Ap     0.422956  
      16App    0.441917    40Ap     0.480221    17App    0.513880  
      41Ap     0.534385    42Ap     0.548246    18App    0.549587  
      43Ap     0.553399    44Ap     0.560736    19App    0.572350  
      20App    0.573254    45Ap     0.576660    46Ap     0.583330  
      47Ap     0.613336    21App    0.625706    48Ap     0.638152  
      49Ap     0.643860    22App    0.645326    50Ap     0.665201  
      51Ap     0.683426    52Ap     0.704503    23App    0.709090  
      24App    0.746960    53Ap     0.760231    25App    0.766898  
      26App    0.814483    54Ap     0.814890    55Ap     0.817905  
      27App    0.824933    56Ap     0.869528    57Ap     0.907809  
      58Ap     0.909220    59Ap     1.001452    28App    1.006767  
      29App    1.015279    60Ap     1.049251    30App    1.071439  
      61Ap     1.082098    31App    1.148879    62Ap     1.158078  
      63Ap     1.193658    64Ap     1.199984    32App    1.230626  
      33App    1.241845    65Ap     1.245642    66Ap     1.334106  
      67Ap     1.363261    68Ap     1.443473    69Ap     1.485928  
      70Ap     1.774590    34App    1.775252    35App    1.805861  
      71Ap     1.818645    72Ap     1.845642    36App    1.850817  
      37App    1.860694    73Ap     1.862101    74Ap     1.897424  
      38App    1.914169    75Ap     1.935123    76Ap     1.965081  
      77Ap     1.969474    39App    1.983043    78Ap     2.000644  
      40App    2.019144    79Ap     2.022054    80Ap     2.044693  
      41App    2.052790    42App    2.056940    43App    2.075963  
      81Ap     2.118211    82Ap     2.138556    44App    2.164424  
      45App    2.180761    83Ap     2.193374    84Ap     2.215914  
      46App    2.243103    85Ap     2.286251    47App    2.327744  
      86Ap     2.328045    48App    2.337764    87Ap     2.347967  
      49App    2.418679    88Ap     2.427722    89Ap     2.458632  
      90Ap     2.537641    91Ap     2.620660    50App    2.653573  
      51App    2.673844    92Ap     2.727220    93Ap     2.750925  
      94Ap     2.818368    95Ap     3.589994    96Ap     3.769372  
      97Ap     5.043971    98Ap     5.394429    99Ap     5.751907  

    Beta Occupied:                                                        

       1Ap   -89.190990     2Ap   -89.085022     3Ap   -89.083663  
       4Ap    -8.191027     5Ap    -8.095085     6Ap    -8.093207  
       7Ap    -6.138588     1App   -6.138523     8Ap    -6.133699  
       9Ap    -6.044164    10Ap    -6.042409     2App   -6.041678  
       3App   -6.039790    11Ap    -6.035046    12Ap    -6.033165  
      13Ap    -0.998524    14Ap    -0.847654    15Ap    -0.679922  
      16Ap    -0.519499    17Ap    -0.503816     4App   -0.498457  
       5App   -0.357634    18Ap    -0.349315    19Ap    -0.348066  

    Beta Virtual:                                                         

       6App   -0.099966    20Ap     0.031181    21Ap     0.054260  
      22Ap     0.069118    23Ap     0.080915     7App    0.087856  
      24Ap     0.093772    25Ap     0.106065    26Ap     0.110525  
       8App    0.113296     9App    0.118726    27Ap     0.119243  
      28Ap     0.141546    29Ap     0.185592    10App    0.188365  
      30Ap     0.206456    11App    0.209512    31Ap     0.215053  
      32Ap     0.259171    33Ap     0.280494    34Ap     0.285280  
      35Ap     0.294998    12App    0.295183    13App    0.301593  
      14App    0.353122    36Ap     0.365130    37Ap     0.374396  
      15App    0.401250    38Ap     0.405685    39Ap     0.422956  
      16App    0.441917    40Ap     0.480221    17App    0.513880  
      41Ap     0.534385    42Ap     0.548246    18App    0.549587  
      43Ap     0.553399    44Ap     0.560736    19App    0.572350  
      20App    0.573254    45Ap     0.576660    46Ap     0.583330  
      47Ap     0.613336    21App    0.625706    48Ap     0.638152  
      49Ap     0.643860    22App    0.645326    50Ap     0.665201  
      51Ap     0.683426    52Ap     0.704503    23App    0.709090  
      24App    0.746960    53Ap     0.760231    25App    0.766898  
      26App    0.814483    54Ap     0.814890    55Ap     0.817905  
      27App    0.824933    56Ap     0.869528    57Ap     0.907809  
      58Ap     0.909220    59Ap     1.001452    28App    1.006767  
      29App    1.015279    60Ap     1.049251    30App    1.071439  
      61Ap     1.082098    31App    1.148879    62Ap     1.158078  
      63Ap     1.193658    64Ap     1.199984    32App    1.230626  
      33App    1.241845    65Ap     1.245642    66Ap     1.334106  
      67Ap     1.363261    68Ap     1.443473    69Ap     1.485928  
      70Ap     1.774590    34App    1.775252    35App    1.805861  
      71Ap     1.818645    72Ap     1.845642    36App    1.850817  
      37App    1.860694    73Ap     1.862101    74Ap     1.897424  
      38App    1.914169    75Ap     1.935123    76Ap     1.965081  
      77Ap     1.969474    39App    1.983043    78Ap     2.000644  
      40App    2.019144    79Ap     2.022054    80Ap     2.044693  
      41App    2.052790    42App    2.056940    43App    2.075963  
      81Ap     2.118211    82Ap     2.138556    44App    2.164424  
      45App    2.180761    83Ap     2.193374    84Ap     2.215914  
      46App    2.243103    85Ap     2.286251    47App    2.327744  
      86Ap     2.328045    48App    2.337764    87Ap     2.347967  
      49App    2.418679    88Ap     2.427722    89Ap     2.458632  
      90Ap     2.537641    91Ap     2.620660    50App    2.653573  
      51App    2.673844    92Ap     2.727220    93Ap     2.750925  
      94Ap     2.818368    95Ap     3.589994    96Ap     3.769372  
      97Ap     5.043971    98Ap     5.394429    99Ap     5.751907  

    Final Occupation by Irrep:
             Ap   App 
    DOCC [    19,    5 ]
    SOCC [     0,    0 ]

  @DF-UKS Final Energy: -1194.59157521674206

   => Energetics <=

    Nuclear Repulsion Energy =            185.2448910921686434
    One-Electron Energy =               -2017.9617354411946053
    Two-Electron Energy =                 694.4027089885194073
    DFT Exchange-Correlation Energy =     -56.2772531237363083
    Empirical Dispersion Energy =          -0.0001867324993067
    VV10 Nonlocal Energy =                  0.0000000000000000
    Total Energy =                      -1194.5915752167420578

  UHF NO Occupations:
  HONO-2 :    5App 2.0000000
  HONO-1 :   18 Ap 2.0000000
  HONO-0 :   19 Ap 2.0000000
  LUNO+0 :   20 Ap 0.0000000
  LUNO+1 :   21 Ap 0.0000000
  LUNO+2 :   22 Ap 0.0000000
  LUNO+3 :   23 Ap 0.0000000


Computation Completed


Properties will be evaluated at   0.000000,   0.000000,   0.000000 [a0]

Properties computed using the SCF density matrix

  Nuclear Dipole Moment: [e a0]
     X:     0.0000      Y:     0.0000      Z:     0.0000

  Electronic Dipole Moment: [e a0]
     X:     0.1668      Y:     0.1426      Z:     0.0000

  Dipole Moment: [e a0]
     X:     0.1668      Y:     0.1426      Z:     0.0000     Total:     0.2195

  Dipole Moment: [D]
     X:     0.4240      Y:     0.3626      Z:     0.0000     Total:     0.5579


*** tstop() called on c2-18.compute.lan at Tue Feb  2 14:48:31 2021
Module time:
	user time   =      78.74 seconds =       1.31 minutes
	system time =       0.43 seconds =       0.01 minutes
	total time  =        107 seconds =       1.78 minutes
Total time:
	user time   =     282.76 seconds =       4.71 minutes
	system time =      58.52 seconds =       0.98 minutes
	total time  =        525 seconds =       8.75 minutes

*** tstart() called on c2-18.compute.lan
*** at Tue Feb  2 14:48:31 2021


         ------------------------------------------------------------
                                   SCF GRAD                          
                          Rob Parrish, Justin Turney,                
                       Andy Simmonett, and Alex Sokolov              
         ------------------------------------------------------------

  ==> Geometry <==

    Molecular point group: cs
    Full point group: Cs

    Geometry (in Angstrom), charge = 0, multiplicity = 1:

       Center              X                  Y                   Z               Mass       
    ------------   -----------------  -----------------  -----------------  -----------------
         S            0.558612013625     0.347782433098     0.000000000000    31.972071174400
         S            0.558612013625    -1.552538400252     0.000000000000    31.972071174400
         S           -1.117224027250     1.204755967154     0.000000000000    31.972071174400

  Nuclear repulsion =  185.244891092168643

  ==> Basis Set <==

  Basis Set: AUG-CC-PVTZ
    Blend: AUG-CC-PVTZ
    Number of shells: 48
    Number of basis function: 150
    Number of Cartesian functions: 177
    Spherical Harmonics?: true
    Max angular momentum: 3

  ==> DFJKGrad: Density-Fitted SCF Gradients <==

    Gradient:                    1
    J tasked:                  Yes
    K tasked:                  Yes
    wK tasked:                 Yes
    Omega:               2.000E-01
    OpenMP threads:              1
    Integrals threads:           1
    Memory [MiB]:             7152
    Schwarz Cutoff:          0E+00
    Fitting Condition:       1E-10

   => Auxiliary Basis Set <=

  Basis Set: (AUG-CC-PVTZ AUX)
    Blend: AUG-CC-PVTZ-JKFIT
    Number of shells: 126
    Number of basis function: 438
    Number of Cartesian functions: 540
    Spherical Harmonics?: true
    Max angular momentum: 4

  ==> DFT Potential <==

   => Composite Functional: WB97X-D <= 

    wB97X-D Hyb-GGA Exchange-Correlation Functional

    J.-D. Chai and M. Head-Gordon, Phys. Chem. Chem. Phys. 10, 6615 (2008)

    Deriv               =              1
    GGA                 =           TRUE
    Meta                =          FALSE

    Exchange Hybrid     =           TRUE
    MP2 Hybrid          =          FALSE

   => Exchange-Correlation Functionals <=

    1.0000   wB97D range-separated functional

   => Exact (HF) Exchange <=

    0.7780            HF,LR [omega = 0.2000]
    0.2220               HF 

   => Molecular Quadrature <=

    Radial Scheme          =       TREUTLER
    Pruning Scheme         =           NONE
    Nuclear Scheme         =       TREUTLER

    BS radius alpha        =              1
    Pruning alpha          =              1
    Radial Points          =             99
    Spherical Points       =            590
    Total Points           =         169863
    Total Blocks           =           1382
    Max Points             =            256
    Max Functions          =            150
    Weights Tolerance      =       1.00E-15


  -Total Gradient:
     Atom            X                  Y                   Z
    ------   -----------------  -----------------  -----------------
       1       -0.013672437642     0.001541433706     0.000000000000
       2       -0.000747774127     0.006635054448     0.000000000000
       3        0.014365287302    -0.008205819960     0.000000000000


*** tstop() called on c2-18.compute.lan at Tue Feb  2 14:48:58 2021
Module time:
	user time   =      19.31 seconds =       0.32 minutes
	system time =       0.10 seconds =       0.00 minutes
	total time  =         27 seconds =       0.45 minutes
Total time:
	user time   =     302.07 seconds =       5.03 minutes
	system time =      58.62 seconds =       0.98 minutes
	total time  =        552 seconds =       9.20 minutes

			-----------------------------------------
			 OPTKING 2.0: for geometry optimizations 
			  - R.A. King,  Bethel University        
			-----------------------------------------

	Previous internal coordinate definitions found.
	---Fragment 1 Geometry and Gradient---
	 S           1.0556237161        0.6572135498        0.0000000000
	 S           1.0556237161       -2.9338723757        0.0000000000
	 S          -2.1112474323        2.2766588259        0.0000000000
	            -0.0136724376        0.0015414337        0.0000000000
	            -0.0007477741        0.0066350544        0.0000000000
	             0.0143652873       -0.0082058200        0.0000000000

	---Fragment 1 Intrafragment Coordinates---
	 - Coordinate -           - BOHR/RAD -       - ANG/DEG -
	 R(1,2)           =         3.591086	       1.900321
	 R(1,3)           =         3.556919	       1.882241
	 B(2,1,3)         =         2.043499	     117.083874

	Current energy   :     -1194.5915752167

	Energy change for the previous step:
		Projected    :        -0.0005832915
		Actual       :        -0.0015613533
	Energy ratio indicates good step: Trust radius increased to 1.000e+00.


	Performing BFGS update.
	Previous computed or guess Hessian on step 1.
	Steps to be used in Hessian update: 2 1
	Taking RFO optimization step.
	Going to follow RFO solution 1.
	Using RFO vector 1.
	Norm of target step-size    0.08329
	Projected energy change by RFO approximation:         0.0004562132

	Back-transformation to cartesian coordinates...
	Successfully converged to displaced geometry.

	--- Internal Coordinate Step in ANG or DEG, aJ/ANG or AJ/DEG ---
	 ---------------------------------------------------------------------------
	   Coordinate                Previous        Force       Change         New 
	   ----------                --------       ------       ------       ------
	    1 R(1,2)          =      1.900321     0.054727     0.013631     1.913952
	    2 R(1,3)          =      1.882241     0.136269     0.041864     1.924105
	    3 B(2,1,3)        =    117.083874     0.000201     0.227075   117.310949
	 ---------------------------------------------------------------------------
	Successfully symmetrized geometry.

  ==> Convergence Check <==

  Measures of convergence in internal coordinates in au.
  Criteria marked as inactive (o), active & met (*), and active & unmet ( ).
  ---------------------------------------------------------------------------------------------
   Step     Total Energy     Delta E     MAX Force     RMS Force      MAX Disp      RMS Disp   
  ---------------------------------------------------------------------------------------------
    Convergence Criteria             o    2.00e-06 *    1.00e-06 *    6.00e-06 *    4.00e-06 *
  ---------------------------------------------------------------------------------------------
      3   -1194.59157522   -1.56e-03 o    1.65e-02      1.04e-02      7.91e-02      4.81e-02    ~
  ---------------------------------------------------------------------------------------------

	Writing optimization data to binary file.
	Structure for next step:
	Cartesian Geometry (in Angstrom)
	    S     0.5701183887   0.3433073946   0.0000000000
	    S     0.5687603884  -1.5706441007   0.0000000000
	    S    -1.1388787771   1.2273367061   0.0000000000
			--------------------------
			 OPTKING Finished Execution 
			--------------------------

    Structure for next step:
    Molecular point group: cs
    Full point group: Cs

    Geometry (in Angstrom), charge = 0, multiplicity = 1:

    S       
    S             1          r1
    S             1          r2      2          a1

    a1        =  117.3109489657
    r1        =    1.9139519846
    r2        =    1.9241047699

gradient() will perform analytic gradient computation.

*** tstart() called on c2-18.compute.lan
*** at Tue Feb  2 14:48:58 2021

   => Loading Basis Set <=

    Name: AUG-CC-PVTZ
    Role: ORBITAL
    Keyword: BASIS
    atoms 1-3 entry S          line   906 file /apps/gb/PSI4/1.4.0/share/psi4/basis/aug-cc-pvtz.gbs 

   => WB97X-D: Empirical Dispersion <=

    Chai and Head-Gordon Dispersion Correction
    Chai, J.-D.; Head-Gordon, M. (2010), J. Chem. Phys., 132: 6615-6620

        s6 =       1.000000


         ---------------------------------------------------------
                                   SCF
               by Justin Turney, Rob Parrish, Andy Simmonett
                          and Daniel G. A. Smith
                              UKS Reference
                        1 Threads,   9536 MiB Core
         ---------------------------------------------------------

  ==> Geometry <==

    Molecular point group: cs
    Full point group: Cs

    Geometry (in Angstrom), charge = 0, multiplicity = 1:

       Center              X                  Y                   Z               Mass       
    ------------   -----------------  -----------------  -----------------  -----------------
         S            0.569874661654     0.343711823821     0.000000000000    31.972071174400
         S            0.569874661654    -1.570240160730     0.000000000000    31.972071174400
         S           -1.139749323308     1.226528336909     0.000000000000    31.972071174400

  Running in cs symmetry.

  Rotational constants: A =      0.79369  B =      0.09814  C =      0.08734 [cm^-1]
  Rotational constants: A =  23794.24960  B =   2942.24489  C =   2618.46254 [MHz]
  Nuclear repulsion =  182.514262263483175

  Charge       = 0
  Multiplicity = 1
  Electrons    = 48
  Nalpha       = 24
  Nbeta        = 24

  ==> Algorithm <==

  SCF Algorithm Type is DF.
  DIIS enabled.
  MOM disabled.
  Fractional occupation disabled.
  Guess Type is READ.
  Energy threshold   = 1.00e-08
  Density threshold  = 1.00e-08
  Integral threshold = 0.00e+00

  ==> Primary Basis <==

  Basis Set: AUG-CC-PVTZ
    Blend: AUG-CC-PVTZ
    Number of shells: 48
    Number of basis function: 150
    Number of Cartesian functions: 177
    Spherical Harmonics?: true
    Max angular momentum: 3

  ==> DFT Potential <==

   => Composite Functional: WB97X-D <= 

    wB97X-D Hyb-GGA Exchange-Correlation Functional

    J.-D. Chai and M. Head-Gordon, Phys. Chem. Chem. Phys. 10, 6615 (2008)

    Deriv               =              1
    GGA                 =           TRUE
    Meta                =          FALSE

    Exchange Hybrid     =           TRUE
    MP2 Hybrid          =          FALSE

   => Exchange-Correlation Functionals <=

    1.0000   wB97D range-separated functional

   => Exact (HF) Exchange <=

    0.7780            HF,LR [omega = 0.2000]
    0.2220               HF 

   => Molecular Quadrature <=

    Radial Scheme          =       TREUTLER
    Pruning Scheme         =           NONE
    Nuclear Scheme         =       TREUTLER

    BS radius alpha        =              1
    Pruning alpha          =              1
    Radial Points          =             99
    Spherical Points       =            590
    Total Points           =         169883
    Total Blocks           =           1385
    Max Points             =            256
    Max Functions          =            150
    Weights Tolerance      =       1.00E-15

   => Loading Basis Set <=

    Name: (AUG-CC-PVTZ AUX)
    Role: JKFIT
    Keyword: DF_BASIS_SCF
    atoms 1-3 entry S          line   730 file /apps/gb/PSI4/1.4.0/share/psi4/basis/aug-cc-pvtz-jkfit.gbs 

   => Loading Basis Set <=

    Name: AUG-CC-PVTZ
    Role: ORBITAL
    Keyword: BASIS
    atoms 1-3 entry S          line   906 file /apps/gb/PSI4/1.4.0/share/psi4/basis/aug-cc-pvtz.gbs 

  Reading orbitals from file 180, no projection.

  ==> Pre-Iterations <==

   -------------------------------------------------------
    Irrep   Nso     Nmo     Nalpha   Nbeta   Ndocc  Nsocc
   -------------------------------------------------------
     A'        99      99       0       0       0       0
     A"        51      51       0       0       0       0
   -------------------------------------------------------
    Total     150     150      24      24      24       0
   -------------------------------------------------------

  ==> Integral Setup <==

  ==> DiskDFJK: Density-Fitted J/K Matrices <==

    J tasked:                  Yes
    K tasked:                  Yes
    wK tasked:                 Yes
    Omega:               2.000E-01
    OpenMP threads:              1
    Integrals threads:           1
    Memory [MiB]:             6478
    Algorithm:                Core
    Integral Cache:           NONE
    Schwarz Cutoff:          1E-12
    Fitting Condition:       1E-10

   => Auxiliary Basis Set <=

  Basis Set: (AUG-CC-PVTZ AUX)
    Blend: AUG-CC-PVTZ-JKFIT
    Number of shells: 126
    Number of basis function: 438
    Number of Cartesian functions: 540
    Spherical Harmonics?: true
    Max angular momentum: 4

  Cached 100.0% of DFT collocation blocks in 0.658 [GiB].

  Minimum eigenvalue in the overlap matrix is 1.7526216286E-04.
  Using Symmetric Orthogonalization.

  SCF Guess: Orbitals guess was supplied from a previous computation.

  ==> Iterations <==

                           Total Energy        Delta E     RMS |[F,P]|

   @DF-UKS iter   0: -1194.57144387646144   -1.19457e+03   1.13496e-03 
   @DF-UKS iter   1: -1194.59159895931634   -2.01551e-02   2.05982e-04 DIIS
   @DF-UKS iter   2: -1194.59146516133956    1.33798e-04   2.55130e-04 DIIS
   @DF-UKS iter   3: -1194.59194012669832   -4.74965e-04   3.48432e-05 DIIS
   @DF-UKS iter   4: -1194.59194821786059   -8.09116e-06   9.52965e-06 DIIS
   @DF-UKS iter   5: -1194.59194894536904   -7.27508e-07   6.19678e-06 DIIS
   @DF-UKS iter   6: -1194.59194929384194   -3.48473e-07   1.20872e-06 DIIS
   @DF-UKS iter   7: -1194.59194931565571   -2.18138e-08   2.65972e-07 DIIS
   @DF-UKS iter   8: -1194.59194931811771   -2.46200e-09   1.34893e-07 DIIS
   @DF-UKS iter   9: -1194.59194931849152   -3.73802e-10   4.25211e-08 DIIS
   @DF-UKS iter  10: -1194.59194931854518   -5.36602e-11   1.67158e-08 DIIS
   @DF-UKS iter  11: -1194.59194931855450   -9.32232e-12   7.23101e-09 DIIS
  Energy and wave function converged.


  ==> Post-Iterations <==

   @Spin Contamination Metric:  -2.131628207E-14
   @S^2 Expected:                0.000000000E+00
   @S^2 Observed:               -2.131628207E-14
   @S   Expected:                0.000000000E+00
   @S   Observed:                0.000000000E+00

    Orbital Energies [Eh]
    ---------------------

    Alpha Occupied:                                                       

       1Ap   -89.193446     2Ap   -89.087886     3Ap   -89.087108  
       4Ap    -8.192507     5Ap    -8.096778     6Ap    -8.095741  
       7Ap    -6.140107     1App   -6.139976     8Ap    -6.135339  
       9Ap    -6.046055    10Ap    -6.045087     2App   -6.043426  
       3App   -6.042381    11Ap    -6.036720    12Ap    -6.035677  
      13Ap    -0.989780    14Ap    -0.843043    15Ap    -0.683987  
      16Ap    -0.518132    17Ap    -0.500069     4App   -0.493471  
       5App   -0.356284    18Ap    -0.349677    19Ap    -0.348920  

    Alpha Virtual:                                                        

       6App   -0.104630    20Ap     0.023676    21Ap     0.051983  
      22Ap     0.068819    23Ap     0.080561     7App    0.088191  
      24Ap     0.089687    25Ap     0.106556    26Ap     0.109975  
       8App    0.113429    27Ap     0.118186     9App    0.118834  
      28Ap     0.140149    29Ap     0.185317    10App    0.188344  
      30Ap     0.205968    11App    0.208534    31Ap     0.214572  
      32Ap     0.258652    33Ap     0.279964    34Ap     0.283983  
      12App    0.293998    35Ap     0.295693    13App    0.299662  
      14App    0.352210    36Ap     0.364823    37Ap     0.370954  
      15App    0.400343    38Ap     0.401028    39Ap     0.422308  
      16App    0.442844    40Ap     0.479884    17App    0.514797  
      41Ap     0.536041    42Ap     0.548872    18App    0.550942  
      43Ap     0.555643    44Ap     0.561874    19App    0.571664  
      20App    0.573042    45Ap     0.574838    46Ap     0.584602  
      47Ap     0.613297    21App    0.625528    48Ap     0.637234  
      49Ap     0.643324    22App    0.645016    50Ap     0.661155  
[...]
      13Ap    -0.992504    14Ap    -0.844552    15Ap    -0.682676  
      16Ap    -0.518589    17Ap    -0.501239     4App   -0.495027  
       5App   -0.356734    18Ap    -0.349487    19Ap    -0.348750  

    Alpha Virtual:                                                        

       6App   -0.103143    20Ap     0.026153    21Ap     0.052778  
      22Ap     0.068909    23Ap     0.080667     7App    0.088090  
      24Ap     0.090977    25Ap     0.106406    26Ap     0.110137  
       8App    0.113384    27Ap     0.118497     9App    0.118801  
      28Ap     0.140558    29Ap     0.185404    10App    0.188354  
      30Ap     0.206123    11App    0.208843    31Ap     0.214708  
      32Ap     0.258824    33Ap     0.280116    34Ap     0.284463  
      12App    0.294413    35Ap     0.295428    13App    0.300258  
      14App    0.352501    36Ap     0.364941    37Ap     0.372046  
      15App    0.400647    38Ap     0.402513    39Ap     0.422526  
      16App    0.442553    40Ap     0.479974    17App    0.514495  
      41Ap     0.535530    42Ap     0.548701    18App    0.550538  
      43Ap     0.554906    44Ap     0.561521    19App    0.572191  
      20App    0.572818    45Ap     0.575449    46Ap     0.584159  
      47Ap     0.613295    21App    0.625592    48Ap     0.637529  
      49Ap     0.643514    22App    0.645077    50Ap     0.662347  
      51Ap     0.681035    52Ap     0.701467    23App    0.704853  
      24App    0.744950    53Ap     0.755875    25App    0.762846  
      54Ap     0.811809    26App    0.812128    55Ap     0.814720  
      27App    0.822504    56Ap     0.864631    57Ap     0.899596  
      58Ap     0.902410    59Ap     0.994523    28App    0.999996  
      29App    1.011525    60Ap     1.044884    30App    1.067720  
      61Ap     1.079698    31App    1.145262    62Ap     1.153851  
      63Ap     1.186741    64Ap     1.195788    32App    1.228613  
      33App    1.237398    65Ap     1.237584    66Ap     1.332376  
      67Ap     1.358987    68Ap     1.438772    69Ap     1.488867  
      70Ap     1.774001    34App    1.778324    35App    1.809172  
      71Ap     1.820611    72Ap     1.849186    36App    1.850938  
      73Ap     1.862840    37App    1.862959    74Ap     1.895120  
      38App    1.917475    75Ap     1.936389    76Ap     1.968757  
      77Ap     1.971352    39App    1.985823    78Ap     1.994835  
      40App    2.015974    79Ap     2.019165    41App    2.045011  
      80Ap     2.047081    42App    2.055887    43App    2.069905  
      81Ap     2.117002    82Ap     2.138430    44App    2.162684  
      45App    2.178678    83Ap     2.191136    84Ap     2.207150  
      46App    2.243485    85Ap     2.281998    47App    2.321018  
      86Ap     2.321618    48App    2.325977    87Ap     2.345612  
      49App    2.404341    88Ap     2.420732    89Ap     2.448021  
      90Ap     2.524622    91Ap     2.595989    50App    2.642308  
      51App    2.657960    92Ap     2.705500    93Ap     2.705629  
      94Ap     2.800253    95Ap     3.610578    96Ap     3.765853  
      97Ap     4.998365    98Ap     5.353949    99Ap     5.708577  

    Beta Occupied:                                                        

       1Ap   -89.192697     2Ap   -89.086516     3Ap   -89.086513  
       4Ap    -8.192052     5Ap    -8.095603     6Ap    -8.095592  
       7Ap    -6.139642     1App   -6.139532     8Ap    -6.134834  
       9Ap    -6.044855    10Ap    -6.044853     2App   -6.042225  
       3App   -6.042224    11Ap    -6.035545    12Ap    -6.035544  
      13Ap    -0.992504    14Ap    -0.844552    15Ap    -0.682676  
      16Ap    -0.518589    17Ap    -0.501239     4App   -0.495027  
       5App   -0.356734    18Ap    -0.349487    19Ap    -0.348750  

    Beta Virtual:                                                         

       6App   -0.103143    20Ap     0.026153    21Ap     0.052778  
      22Ap     0.068909    23Ap     0.080667     7App    0.088090  
      24Ap     0.090977    25Ap     0.106406    26Ap     0.110137  
       8App    0.113384    27Ap     0.118497     9App    0.118801  
      28Ap     0.140558    29Ap     0.185404    10App    0.188354  
      30Ap     0.206123    11App    0.208843    31Ap     0.214708  
      32Ap     0.258824    33Ap     0.280116    34Ap     0.284463  
      12App    0.294413    35Ap     0.295428    13App    0.300258  
      14App    0.352501    36Ap     0.364941    37Ap     0.372046  
      15App    0.400647    38Ap     0.402513    39Ap     0.422526  
      16App    0.442553    40Ap     0.479974    17App    0.514495  
      41Ap     0.535530    42Ap     0.548701    18App    0.550538  
      43Ap     0.554906    44Ap     0.561521    19App    0.572191  
      20App    0.572818    45Ap     0.575449    46Ap     0.584159  
      47Ap     0.613295    21App    0.625592    48Ap     0.637529  
      49Ap     0.643514    22App    0.645077    50Ap     0.662347  
      51Ap     0.681035    52Ap     0.701467    23App    0.704853  
      24App    0.744950    53Ap     0.755875    25App    0.762846  
      54Ap     0.811809    26App    0.812128    55Ap     0.814720  
      27App    0.822504    56Ap     0.864631    57Ap     0.899596  
      58Ap     0.902410    59Ap     0.994523    28App    0.999996  
      29App    1.011525    60Ap     1.044884    30App    1.067720  
      61Ap     1.079698    31App    1.145262    62Ap     1.153851  
      63Ap     1.186741    64Ap     1.195788    32App    1.228613  
      33App    1.237398    65Ap     1.237584    66Ap     1.332376  
      67Ap     1.358987    68Ap     1.438772    69Ap     1.488867  
      70Ap     1.774001    34App    1.778324    35App    1.809172  
      71Ap     1.820611    72Ap     1.849186    36App    1.850938  
      73Ap     1.862840    37App    1.862959    74Ap     1.895120  
      38App    1.917475    75Ap     1.936389    76Ap     1.968757  
      77Ap     1.971352    39App    1.985823    78Ap     1.994835  
      40App    2.015974    79Ap     2.019165    41App    2.045011  
      80Ap     2.047081    42App    2.055887    43App    2.069905  
      81Ap     2.117002    82Ap     2.138430    44App    2.162684  
      45App    2.178678    83Ap     2.191136    84Ap     2.207150  
      46App    2.243485    85Ap     2.281998    47App    2.321018  
      86Ap     2.321618    48App    2.325977    87Ap     2.345612  
      49App    2.404341    88Ap     2.420732    89Ap     2.448021  
      90Ap     2.524622    91Ap     2.595989    50App    2.642308  
      51App    2.657960    92Ap     2.705500    93Ap     2.705629  
      94Ap     2.800253    95Ap     3.610578    96Ap     3.765853  
      97Ap     4.998365    98Ap     5.353949    99Ap     5.708577  

    Final Occupation by Irrep:
             Ap   App 
    DOCC [    19,    5 ]
    SOCC [     0,    0 ]

  @DF-UKS Final Energy: -1194.59206374941959

   => Energetics <=

    Nuclear Repulsion Energy =            183.3785009752413373
    One-Electron Energy =               -2014.2217302399640175
    Two-Electron Energy =                 692.5142930201673153
    DFT Exchange-Correlation Energy =     -56.2629306315916082
    Empirical Dispersion Energy =          -0.0001968732726692
    VV10 Nonlocal Energy =                  0.0000000000000000
    Total Energy =                      -1194.5920637494195944

  UHF NO Occupations:
  HONO-2 :   17 Ap 2.0000000
  HONO-1 :   18 Ap 2.0000000
  HONO-0 :   19 Ap 2.0000000
  LUNO+0 :   20 Ap 0.0000000
  LUNO+1 :   21 Ap 0.0000000
  LUNO+2 :   22 Ap 0.0000000
  LUNO+3 :   23 Ap 0.0000000


Computation Completed


Properties will be evaluated at   0.000000,   0.000000,   0.000000 [a0]

Properties computed using the SCF density matrix

  Nuclear Dipole Moment: [e a0]
     X:     0.0000      Y:    -0.0000      Z:     0.0000

  Electronic Dipole Moment: [e a0]
     X:     0.1895      Y:     0.1156      Z:     0.0000

  Dipole Moment: [e a0]
     X:     0.1895      Y:     0.1156      Z:     0.0000     Total:     0.2220

  Dipole Moment: [D]
     X:     0.4817      Y:     0.2938      Z:     0.0000     Total:     0.5642


*** tstop() called on c2-18.compute.lan at Tue Feb  2 15:14:18 2021
Module time:
	user time   =      74.93 seconds =       1.25 minutes
	system time =       0.32 seconds =       0.01 minutes
	total time  =         90 seconds =       1.50 minutes
Total time:
	user time   =    1433.19 seconds =      23.89 minutes
	system time =      64.41 seconds =       1.07 minutes
	total time  =       2072 seconds =      34.53 minutes

*** tstart() called on c2-18.compute.lan
*** at Tue Feb  2 15:14:18 2021


         ------------------------------------------------------------
                                   SCF GRAD                          
                          Rob Parrish, Justin Turney,                
                       Andy Simmonett, and Alex Sokolov              
         ------------------------------------------------------------

  ==> Geometry <==

    Molecular point group: cs
    Full point group: Cs

    Geometry (in Angstrom), charge = 0, multiplicity = 1:

       Center              X                  Y                   Z               Mass       
    ------------   -----------------  -----------------  -----------------  -----------------
         S            0.565976245587     0.345164334491     0.000000000000    31.972071174400
         S            0.566148524973    -1.564936647748     0.000000000000    31.972071174400
         S           -1.132124770560     1.219772313257     0.000000000000    31.972071174400

  Nuclear repulsion =  183.378500975241337

  ==> Basis Set <==

  Basis Set: AUG-CC-PVTZ
    Blend: AUG-CC-PVTZ
    Number of shells: 48
    Number of basis function: 150
    Number of Cartesian functions: 177
    Spherical Harmonics?: true
    Max angular momentum: 3

  ==> DFJKGrad: Density-Fitted SCF Gradients <==

    Gradient:                    1
    J tasked:                  Yes
    K tasked:                  Yes
    wK tasked:                 Yes
    Omega:               2.000E-01
    OpenMP threads:              1
    Integrals threads:           1
    Memory [MiB]:             7152
    Schwarz Cutoff:          0E+00
    Fitting Condition:       1E-10

   => Auxiliary Basis Set <=

  Basis Set: (AUG-CC-PVTZ AUX)
    Blend: AUG-CC-PVTZ-JKFIT
    Number of shells: 126
    Number of basis function: 438
    Number of Cartesian functions: 540
    Spherical Harmonics?: true
    Max angular momentum: 4

  ==> DFT Potential <==

   => Composite Functional: WB97X-D <= 

    wB97X-D Hyb-GGA Exchange-Correlation Functional

    J.-D. Chai and M. Head-Gordon, Phys. Chem. Chem. Phys. 10, 6615 (2008)

    Deriv               =              1
    GGA                 =           TRUE
    Meta                =          FALSE

    Exchange Hybrid     =           TRUE
    MP2 Hybrid          =          FALSE

   => Exchange-Correlation Functionals <=

    1.0000   wB97D range-separated functional

   => Exact (HF) Exchange <=

    0.7780            HF,LR [omega = 0.2000]
    0.2220               HF 

   => Molecular Quadrature <=

    Radial Scheme          =       TREUTLER
    Pruning Scheme         =           NONE
    Nuclear Scheme         =       TREUTLER

    BS radius alpha        =              1
    Pruning alpha          =              1
    Radial Points          =             99
    Spherical Points       =            590
    Total Points           =         169877
    Total Blocks           =           1388
    Max Points             =            256
    Max Functions          =            150
    Weights Tolerance      =       1.00E-15


  -Total Gradient:
     Atom            X                  Y                   Z
    ------   -----------------  -----------------  -----------------
       1        0.000101107228     0.000061336172     0.000000000000
       2        0.000005534286    -0.000179134014     0.000000000000
       3       -0.000156974349     0.000087101949     0.000000000000


*** tstop() called on c2-18.compute.lan at Tue Feb  2 15:14:45 2021
Module time:
	user time   =      19.44 seconds =       0.32 minutes
	system time =       0.09 seconds =       0.00 minutes
	total time  =         27 seconds =       0.45 minutes
Total time:
	user time   =    1452.63 seconds =      24.21 minutes
	system time =      64.50 seconds =       1.07 minutes
	total time  =       2099 seconds =      34.98 minutes

         ----------------------------------------------------------
                                   FINDIF
                     R. A. King and Jonathon Misiewicz
         ---------------------------------------------------------

  Computing second-derivative from gradients using projected, 
  symmetry-adapted, cartesian coordinates.

  7 gradients passed in, including the reference geometry.
  Generating complete list of displacements from unique ones.


-------------------------------------------------------------


  ==> Harmonic Vibrational Analysis <==

  non-mass-weighted Hessian:       Symmetric? True   Hermitian? True   Lin Dep Dim?  6 (0)
  projection of translations (True) and rotations (True) removed 6 degrees of freedom (6)
  total projector:                 Symmetric? True   Hermitian? True   Lin Dep Dim?  6 (6)
  mass-weighted Hessian:           Symmetric? True   Hermitian? True   Lin Dep Dim?  6 (0)
  pre-proj  low-frequency mode:    0.0000i [cm^-1]
  pre-proj  low-frequency mode:    0.0000i [cm^-1]
  pre-proj  low-frequency mode:    0.0000  [cm^-1]
  pre-proj  low-frequency mode:    0.0000  [cm^-1]
  pre-proj  low-frequency mode:    0.0000  [cm^-1]
  pre-proj  low-frequency mode:    0.0000  [cm^-1]
  pre-proj  all modes:['0.0000i' '0.0000i' '0.0000' '0.0000' '0.0000' '0.0000' '271.7045'
 '628.7522' '725.2408']
  projected mass-weighted Hessian: Symmetric? True   Hermitian? True   Lin Dep Dim?  6 (6)
  post-proj low-frequency mode:    0.0000i [cm^-1] (TR)
  post-proj low-frequency mode:    0.0000i [cm^-1] (TR)
  post-proj low-frequency mode:    0.0000i [cm^-1] (TR)
  post-proj low-frequency mode:    0.0000i [cm^-1] (TR)
  post-proj low-frequency mode:    0.0000  [cm^-1] (TR)
  post-proj low-frequency mode:    0.0000  [cm^-1] (TR)
  post-proj  all modes:['0.0000i' '0.0000i' '0.0000i' '0.0000i' '0.0000' '0.0000' '271.7045'
 '628.7522' '725.2408']

  Vibration                       7                   8                   9           
  Freq [cm^-1]                 271.7045            628.7522            725.2408       
  Irrep                           Ap                  Ap                  Ap          
  Reduced mass [u]             31.9721             31.9721             31.9721        
  Force const [mDyne/A]         1.3906              7.4470              9.9080        
  Turning point v=0 [a0]        0.1177              0.0774              0.0721        
  RMS dev v=0 [a0 u^1/2]        0.4707              0.3094              0.2881        
  Char temp [K]                390.9223            904.6345           1043.4601       
  ----------------------------------------------------------------------------------
      1   S               -0.45 -0.27  0.00   -0.53 -0.33  0.00   -0.40  0.66  0.00   
      2   S                0.51 -0.33 -0.00    0.03  0.55 -0.00   -0.00 -0.45 -0.00   
      3   S               -0.06  0.60 -0.00    0.50 -0.22 -0.00    0.40 -0.21 -0.00   

  ==> Thermochemistry Components <==

  Entropy, S
    Electronic S            0.000 [cal/(mol K)]        0.000 [J/(mol K)]       0.00000000 [mEh/K] (multiplicity = 1)
    Translational S        39.594 [cal/(mol K)]      165.660 [J/(mol K)]       0.06309659 [mEh/K] (mol. weight = 95.9162 [u], P = 101325.00 [Pa])
    Rotational S           24.948 [cal/(mol K)]      104.381 [J/(mol K)]       0.03975671 [mEh/K] (symmetry no. = 1)
    Vibrational S           2.266 [cal/(mol K)]        9.480 [J/(mol K)]       0.00361055 [mEh/K]
  Total S                  66.807 [cal/(mol K)]      279.521 [J/(mol K)]       0.10646385 [mEh/K]
  Correction S              0.000 [cal/(mol K)]        0.000 [J/(mol K)]       0.00000000 [mEh/K]

  Constant volume heat capacity, Cv
    Electronic Cv           0.000 [cal/(mol K)]        0.000 [J/(mol K)]       0.00000000 [mEh/K]
    Translational Cv        2.981 [cal/(mol K)]       12.472 [J/(mol K)]       0.00475022 [mEh/K]
    Rotational Cv           2.981 [cal/(mol K)]       12.472 [J/(mol K)]       0.00475022 [mEh/K]
    Vibrational Cv          3.479 [cal/(mol K)]       14.554 [J/(mol K)]       0.00554344 [mEh/K]
  Total Cv                  9.440 [cal/(mol K)]       39.498 [J/(mol K)]       0.01504387 [mEh/K]
  Correction Cv             0.000 [cal/(mol K)]        0.000 [J/(mol K)]       0.00000000 [mEh/K]

  Constant pressure heat capacity, Cp
    Electronic Cp           0.000 [cal/(mol K)]        0.000 [J/(mol K)]       0.00000000 [mEh/K]
    Translational Cp        4.968 [cal/(mol K)]       20.786 [J/(mol K)]       0.00791703 [mEh/K]
    Rotational Cp           2.981 [cal/(mol K)]       12.472 [J/(mol K)]       0.00475022 [mEh/K]
    Vibrational Cp          3.479 [cal/(mol K)]       14.554 [J/(mol K)]       0.00554344 [mEh/K]
  Total Cp                 11.427 [cal/(mol K)]       47.812 [J/(mol K)]       0.01821068 [mEh/K]
  Correction Cp             0.000 [cal/(mol K)]        0.000 [J/(mol K)]       0.00000000 [mEh/K]

  ==> Thermochemistry Energy Analysis <==

  Raw electronic energy, E0
  Total E0, Electronic energy at well bottom at 0 [K]                -1194.59206380 [Eh]

  Zero-point energy, ZPE_vib = Sum_i nu_i / 2
    Electronic ZPE          0.000 [kcal/mol]        0.000 [kJ/mol]       0.00000000 [Eh]
    Translational ZPE       0.000 [kcal/mol]        0.000 [kJ/mol]       0.00000000 [Eh]
    Rotational ZPE          0.000 [kcal/mol]        0.000 [kJ/mol]       0.00000000 [Eh]
    Vibrational ZPE         2.324 [kcal/mol]        9.724 [kJ/mol]       0.00370361 [Eh]         812.849 [cm^-1]
  Correction ZPE            2.324 [kcal/mol]        9.724 [kJ/mol]       0.00370361 [Eh]         812.849 [cm^-1]
  Total ZPE, Electronic energy at 0 [K]                              -1194.58836018 [Eh]

  Thermal Energy, E (includes ZPE)
    Electronic E            0.000 [kcal/mol]        0.000 [kJ/mol]       0.00000000 [Eh]
    Translational E         0.889 [kcal/mol]        3.718 [kJ/mol]       0.00141628 [Eh]
    Rotational E            0.889 [kcal/mol]        3.718 [kJ/mol]       0.00141628 [Eh]
    Vibrational E           2.766 [kcal/mol]       11.573 [kJ/mol]       0.00440807 [Eh]
  Correction E              4.544 [kcal/mol]       19.010 [kJ/mol]       0.00724063 [Eh]
  Total E, Electronic energy at  298.15 [K]                          -1194.58482317 [Eh]

  Enthalpy, H_trans = E_trans + k_B * T
    Electronic H            0.000 [kcal/mol]        0.000 [kJ/mol]       0.00000000 [Eh]
    Translational H         1.481 [kcal/mol]        6.197 [kJ/mol]       0.00236046 [Eh]
    Rotational H            0.889 [kcal/mol]        3.718 [kJ/mol]       0.00141628 [Eh]
    Vibrational H           2.766 [kcal/mol]       11.573 [kJ/mol]       0.00440807 [Eh]
  Correction H              5.136 [kcal/mol]       21.489 [kJ/mol]       0.00818481 [Eh]
  Total H, Enthalpy at  298.15 [K]                                   -1194.58387898 [Eh]

  Gibbs free energy, G = H - T * S
    Electronic G            0.000 [kcal/mol]        0.000 [kJ/mol]       0.00000000 [Eh]
    Translational G       -10.324 [kcal/mol]      -43.194 [kJ/mol]      -0.01645179 [Eh]
    Rotational G           -6.549 [kcal/mol]      -27.403 [kJ/mol]      -0.01043719 [Eh]
    Vibrational G           2.091 [kcal/mol]        8.747 [kJ/mol]       0.00333159 [Eh]
  Correction G            -14.782 [kcal/mol]      -61.850 [kJ/mol]      -0.02355738 [Eh]
  Total G, Free enthalpy at  298.15 [K]                              -1194.61562118 [Eh]

    Psi4 stopped on: Tuesday, 02 February 2021 03:14PM
    Psi4 wall time for execution: 0:34:59.33

*** Psi4 exiting successfully. Buy a developer a beer!
