
    -----------------------------------------------------------------------
          Psi4: An Open-Source Ab Initio Electronic Structure Package
                               Psi4 1.4a2.dev191 

                         Git: Rev {master} 0ab5346 


    R. M. Parrish, L. A. Burns, D. G. A. Smith, A. C. Simmonett,
    A. E. DePrince III, E. G. Hohenstein, U. Bozkaya, A. Yu. Sokolov,
    R. Di Remigio, R. M. Richard, J. F. Gonthier, A. M. James,
    H. R. McAlexander, A. Kumar, M. Saitow, X. Wang, B. P. Pritchard,
    P. Verma, H. F. Schaefer III, K. Patkowski, R. A. King, E. F. Valeev,
    F. A. Evangelista, J. M. Turney, T. D. Crawford, and C. D. Sherrill,
    J. Chem. Theory Comput. 13(7) pp 3185--3197 (2017).
    (doi: 10.1021/acs.jctc.7b00174)


                         Additional Contributions by
    P. Kraus, H. Kruse, M. H. Lechner, M. C. Schieber, R. A. Shaw,
    A. Alenaizan, R. Galvelis, Z. L. Glick, S. Lehtola, and J. P. Misiewicz

    -----------------------------------------------------------------------


    Psi4 started on: Tuesday, 02 February 2021 02:39PM

    Process ID: 108095
    Host:       c2-18.compute.lan
    PSIDATADIR: /apps/gb/PSI4/1.4.0/share/psi4
    Memory:     500.0 MiB
    Threads:    1
    
  ==> Input File <==

--------------------------------------------------------------------------
memory 10 GB

molecule  {
-2 3
S
S 1 r1
S 1 r2 2 a1
r1 = 2.0
r2 = 2.1
a1 = 120.0
}

set {
reference uks
basis aug-cc-pvtz
g_convergence gau_verytight
dft_spherical_points 590
dft_radial_points 99
}

optimize('wb97m-v')
frequencies('wb97m-v')

--------------------------------------------------------------------------

  Memory set to   9.313 GiB by Python driver.
gradient() will perform gradient computation by finite difference of analytic energies.

         ----------------------------------------------------------
                                   FINDIF
                     R. A. King and Jonathon Misiewicz
         ---------------------------------------------------------

  Using finite-differences of energies to determine gradients.
    Generating geometries for use with 3-point formula.
    Displacement size will be 5.00e-03.
    Number of atoms is 3.
    Number of symmetric SALCs is 3.
    Translations projected? 1. Rotations projected? 1.
    Number of geometries (including reference) is 7.

  //>>>>>>>>>>>>>>>>>>>>>>>>>>>>>>>>>>>//
  //    Loading displacement 1 of 7    //
  //<<<<<<<<<<<<<<<<<<<<<<<<<<<<<<<<<<<//

*** tstart() called on c2-18.compute.lan
*** at Tue Feb  2 14:39:47 2021

   => Loading Basis Set <=

    Name: AUG-CC-PVTZ
    Role: ORBITAL
    Keyword: BASIS
    atoms 1-3 entry S          line   906 file /apps/gb/PSI4/1.4.0/share/psi4/basis/aug-cc-pvtz.gbs 


         ---------------------------------------------------------
                                   SCF
               by Justin Turney, Rob Parrish, Andy Simmonett
                          and Daniel G. A. Smith
                              UKS Reference
                        1 Threads,   9536 MiB Core
         ---------------------------------------------------------

  ==> Geometry <==

    Molecular point group: cs
    Full point group: Cs

    Geometry (in Angstrom), charge = -2, multiplicity = 3:

       Center              X                  Y                   Z               Mass       
    ------------   -----------------  -----------------  -----------------  -----------------
         S            0.606217782649     0.316666666667     0.000000000000    31.972071174400
         S            0.606217782649    -1.683333333333     0.000000000000    31.972071174400
         S           -1.212435565298     1.366666666667     0.000000000000    31.972071174400

  Running in cs symmetry.

  Rotational constants: A =      0.75413  B =      0.08359  C =      0.07525 [cm^-1]
  Rotational constants: A =  22608.14975  B =   2506.04720  C =   2255.97858 [MHz]
  Nuclear repulsion =  170.392939668640480

  Charge       = -2
  Multiplicity = 3
  Electrons    = 50
  Nalpha       = 26
  Nbeta        = 24

  ==> Algorithm <==

  SCF Algorithm Type is DF.
  DIIS enabled.
  MOM disabled.
  Fractional occupation disabled.
  Guess Type is SAD.
  Energy threshold   = 1.00e-08
  Density threshold  = 1.00e-08
  Integral threshold = 0.00e+00

  ==> Primary Basis <==

  Basis Set: AUG-CC-PVTZ
    Blend: AUG-CC-PVTZ
    Number of shells: 48
    Number of basis function: 150
    Number of Cartesian functions: 177
    Spherical Harmonics?: true
    Max angular momentum: 3

  ==> DFT Potential <==

   => Composite Functional: WB97M-V <= 

    wB97M-V Hyb-GGA Exchange-Correlation Functional

    N. Mardirossian and M. Head-Gordon, J. Chem. Phys. 144, 214110 (2016)

    Deriv               =              1
    GGA                 =           TRUE
    Meta                =           TRUE

    Exchange Hybrid     =           TRUE
    MP2 Hybrid          =          FALSE

   => Exchange-Correlation Functionals <=

    1.0000   wB97M-V exchange-correlation functional

   => Exact (HF) Exchange <=

    0.8500            HF,LR [omega = 0.3000]
    0.1500               HF 

   => VV10 Non-Local Parameters <=

    VV10 B              =     6.0000E+00
    VV10 C              =     1.0000E-02

   => Molecular Quadrature <=

    Radial Scheme          =       TREUTLER
    Pruning Scheme         =           NONE
    Nuclear Scheme         =       TREUTLER

    BS radius alpha        =              1
    Pruning alpha          =              1
    Radial Points          =             99
    Spherical Points       =            590
    Total Points           =         169927
    Total Blocks           =           1392
    Max Points             =            256
    Max Functions          =            150
    Weights Tolerance      =       1.00E-15

   => Loading Basis Set <=

    Name: (AUG-CC-PVTZ AUX)
    Role: JKFIT
    Keyword: DF_BASIS_SCF
    atoms 1-3 entry S          line   730 file /apps/gb/PSI4/1.4.0/share/psi4/basis/aug-cc-pvtz-jkfit.gbs 

  ==> Pre-Iterations <==

   -------------------------------------------------------
    Irrep   Nso     Nmo     Nalpha   Nbeta   Ndocc  Nsocc
   -------------------------------------------------------
     A'        99      99       0       0       0       0
     A"        51      51       0       0       0       0
   -------------------------------------------------------
    Total     150     150      26      24      24       2
   -------------------------------------------------------

  ==> Integral Setup <==

  ==> DiskDFJK: Density-Fitted J/K Matrices <==

    J tasked:                  Yes
    K tasked:                  Yes
    wK tasked:                 Yes
    Omega:               3.000E-01
    OpenMP threads:              1
    Integrals threads:           1
    Memory [MiB]:             5488
    Algorithm:                Core
    Integral Cache:           NONE
    Schwarz Cutoff:          1E-12
    Fitting Condition:       1E-10

   => Auxiliary Basis Set <=

  Basis Set: (AUG-CC-PVTZ AUX)
    Blend: AUG-CC-PVTZ-JKFIT
    Number of shells: 126
    Number of basis function: 438
    Number of Cartesian functions: 540
    Spherical Harmonics?: true
    Max angular momentum: 4

  Cached 100.0% of DFT collocation blocks in 1.625 [GiB].

  Minimum eigenvalue in the overlap matrix is 2.2915518432E-04.
  Using Symmetric Orthogonalization.

  SCF Guess: Superposition of Atomic Densities via on-the-fly atomic UHF.

  ==> Iterations <==

                           Total Energy        Delta E     RMS |[F,P]|

   @DF-UKS iter SAD: -1194.00650497719971   -1.19401e+03   0.00000e+00 
   @DF-UKS iter   1: -1194.24017244682545   -2.33667e-01   5.04907e-03 DIIS
   @DF-UKS iter   2: -1194.20551843149769    3.46540e-02   5.67153e-03 DIIS
   @DF-UKS iter   3: -1194.46493182656900   -2.59413e-01   8.52507e-04 DIIS
   @DF-UKS iter   4: -1194.47138201082794   -6.45018e-03   4.92522e-04 DIIS
   @DF-UKS iter   5: -1194.47390019578847   -2.51818e-03   1.65091e-04 DIIS
   @DF-UKS iter   6: -1194.47463440688625   -7.34211e-04   8.26004e-05 DIIS
   @DF-UKS iter   7: -1194.47505216477384   -4.17758e-04   4.94775e-05 DIIS
   @DF-UKS iter   8: -1194.47521800403410   -1.65839e-04   2.94902e-05 DIIS
   @DF-UKS iter   9: -1194.47528601491922   -6.80109e-05   1.59363e-05 DIIS
   @DF-UKS iter  10: -1194.47530469670255   -1.86818e-05   6.57193e-06 DIIS
   @DF-UKS iter  11: -1194.47530956816718   -4.87146e-06   2.17138e-06 DIIS
   @DF-UKS iter  12: -1194.47531012194713   -5.53780e-07   9.68812e-07 DIIS
   @DF-UKS iter  13: -1194.47531023593956   -1.13992e-07   5.05122e-07 DIIS
   @DF-UKS iter  14: -1194.47531026786237   -3.19228e-08   3.94074e-07 DIIS
   @DF-UKS iter  15: -1194.47531029482889   -2.69665e-08   3.10840e-07 DIIS
   @DF-UKS iter  16: -1194.47531032591746   -3.10886e-08   2.36683e-07 DIIS
   @DF-UKS iter  17: -1194.47531034722056   -2.13031e-08   1.70881e-07 DIIS
   @DF-UKS iter  18: -1194.47531035660631   -9.38576e-09   1.06879e-07 DIIS
   @DF-UKS iter  19: -1194.47531035888778   -2.28147e-09   4.76901e-08 DIIS
   @DF-UKS iter  20: -1194.47531035918587   -2.98087e-10   2.40742e-08 DIIS
   @DF-UKS iter  21: -1194.47531035926067   -7.48059e-11   1.40624e-08 DIIS
   @DF-UKS iter  22: -1194.47531035927432   -1.36424e-11   6.74832e-09 DIIS
  Energy and wave function converged.


  ==> Post-Iterations <==

   @Spin Contamination Metric:   7.867096598E-03
   @S^2 Expected:                2.000000000E+00
   @S^2 Observed:                2.007867097E+00
   @S   Expected:                1.000000000E+00
   @S   Observed:                1.000000000E+00

    Orbital Energies [Eh]
    ---------------------

    Alpha Occupied:                                                       

       1Ap   -88.956187     2Ap   -88.881459     3Ap   -88.872093  
       4Ap    -7.862271     5Ap    -7.793841     6Ap    -7.783028  
       7Ap    -5.771339     1App   -5.771330     8Ap    -5.767462  
       9Ap    -5.704484     2App   -5.701664    10Ap    -5.696910  
      11Ap    -5.694282     3App   -5.690491    12Ap    -5.686068  
      13Ap    -0.615960    14Ap    -0.488249    15Ap    -0.372568  
      16Ap    -0.168146     4App   -0.146524    17Ap    -0.145416  
       5App   -0.040610    18Ap    -0.019593    19Ap    -0.012123  
       6App    0.026889    20Ap     0.166269  

    Alpha Virtual:                                                        

      21Ap     0.242353    22Ap     0.290827    23Ap     0.293038  
       7App    0.304960    24Ap     0.308886     8App    0.318718  
       9App    0.321166    25Ap     0.324549    26Ap     0.327472  
      27Ap     0.361749    28Ap     0.368484    29Ap     0.410472  
      30Ap     0.443143    10App    0.486965    31Ap     0.501449  
      11App    0.512808    32Ap     0.530846    33Ap     0.541376  
      34Ap     0.550186    35Ap     0.567361    12App    0.575888  
      13App    0.580560    36Ap     0.591207    14App    0.605393  
      37Ap     0.609418    38Ap     0.632983    15App    0.655976  
      39Ap     0.677114    16App    0.751898    40Ap     0.779275  
      41Ap     0.820290    17App    0.823949    42Ap     0.839355  
      43Ap     0.843275    44Ap     0.850871    18App    0.862973  
      19App    0.867255    45Ap     0.871094    46Ap     0.875499  
      20App    0.880991    47Ap     0.908828    48Ap     0.943798  
      21App    0.948955    49Ap     0.955620    22App    0.969782  
      50Ap     0.974102    51Ap     0.983571    52Ap     1.007116  
      23App    1.010467    24App    1.047825    53Ap     1.048644  
      25App    1.066231    54Ap     1.105706    26App    1.109778  
      55Ap     1.110858    27App    1.127992    56Ap     1.145199  
      57Ap     1.167083    58Ap     1.172961    59Ap     1.254880  
      28App    1.261140    29App    1.298387    60Ap     1.323592  
      30App    1.358775    61Ap     1.362597    31App    1.430075  
      62Ap     1.432912    63Ap     1.446644    64Ap     1.474980  
      65Ap     1.499948    32App    1.517721    33App    1.527124  
      66Ap     1.622195    67Ap     1.634943    68Ap     1.693984  
      69Ap     1.798482    70Ap     2.105138    34App    2.118489  
      35App    2.145128    71Ap     2.153296    36App    2.182222  
      72Ap     2.186921    37App    2.196265    73Ap     2.199233  
      74Ap     2.231392    38App    2.262636    75Ap     2.283426  
      76Ap     2.303894    77Ap     2.319167    39App    2.324414  
      40App    2.334418    78Ap     2.334641    41App    2.357043  
      79Ap     2.363672    42App    2.386744    80Ap     2.399434  
      43App    2.409130    81Ap     2.446526    82Ap     2.467347  
      44App    2.481527    83Ap     2.488307    45App    2.495166  
      84Ap     2.503112    46App    2.567261    85Ap     2.576830  
      47App    2.580532    86Ap     2.589783    87Ap     2.610719  
      48App    2.614091    49App    2.660037    88Ap     2.699689  
      89Ap     2.719166    90Ap     2.764179    91Ap     2.787389  
      92Ap     2.821172    50App    2.853303    93Ap     2.878471  
      51App    2.916245    94Ap     3.030101    95Ap     3.913121  
      96Ap     4.018126    97Ap     5.092634    98Ap     5.501626  
      99Ap     5.956572  

    Beta Occupied:                                                        

       1Ap   -88.952333     2Ap   -88.879443     3Ap   -88.869985  
       4Ap    -7.858126     5Ap    -7.791742     6Ap    -7.780809  
       7Ap    -5.768827     8Ap    -5.763689     1App   -5.759571  
       9Ap    -5.702602    10Ap    -5.695290     2App   -5.695233  
      11Ap    -5.691789    12Ap    -5.684396     3App   -5.684387  
      13Ap    -0.600962    14Ap    -0.475775    15Ap    -0.348184  
      16Ap    -0.154756    17Ap    -0.131934     4App   -0.110369  
      18Ap    -0.009293    19Ap    -0.004431     5App    0.003168  

    Beta Virtual:                                                         

       6App    0.248355    20Ap     0.258970    21Ap     0.267836  
      22Ap     0.300644     7App    0.310665    23Ap     0.313282  
      24Ap     0.322097     8App    0.323275    25Ap     0.341459  
       9App    0.341958    26Ap     0.364737    27Ap     0.372750  
      28Ap     0.403464    29Ap     0.443994    30Ap     0.463255  
      10App    0.492208    31Ap     0.511495    11App    0.522394  
      32Ap     0.553667    33Ap     0.562214    34Ap     0.570078  
      35Ap     0.586720    12App    0.587415    13App    0.589240  
      36Ap     0.618916    14App    0.623549    37Ap     0.631651  
      38Ap     0.651548    15App    0.669503    39Ap     0.696893  
      16App    0.762201    40Ap     0.785938    17App    0.833297  
      41Ap     0.838787    42Ap     0.849800    43Ap     0.855965  
      44Ap     0.868610    18App    0.875464    19App    0.879476  
      45Ap     0.881212    20App    0.893805    46Ap     0.896431  
      47Ap     0.931908    48Ap     0.951712    21App    0.960304  
      49Ap     0.966960    22App    0.978026    50Ap     0.986136  
      51Ap     1.000891    52Ap     1.019571    23App    1.024632  
      24App    1.060629    53Ap     1.065780    25App    1.086423  
      54Ap     1.110885    26App    1.113205    55Ap     1.118206  
      27App    1.133793    56Ap     1.164216    57Ap     1.179926  
      58Ap     1.183301    59Ap     1.260946    28App    1.267426  
      29App    1.307707    60Ap     1.331899    30App    1.367918  
      61Ap     1.369988    31App    1.444173    62Ap     1.447427  
      63Ap     1.456629    64Ap     1.492489    65Ap     1.514928  
      32App    1.535179    33App    1.539381    66Ap     1.644237  
      67Ap     1.647820    68Ap     1.718477    69Ap     1.829614  
      70Ap     2.128527    34App    2.143732    35App    2.161153  
      71Ap     2.171742    36App    2.199409    72Ap     2.203001  
      73Ap     2.213058    37App    2.214385    74Ap     2.242714  
      75Ap     2.288349    38App    2.290460    76Ap     2.313619  
      77Ap     2.328672    39App    2.344450    78Ap     2.345506  
      40App    2.357706    41App    2.370871    79Ap     2.374784  
      42App    2.406277    80Ap     2.413039    43App    2.438994  
      81Ap     2.454325    82Ap     2.477115    44App    2.497258  
      83Ap     2.502289    45App    2.510588    84Ap     2.516968  
      46App    2.578664    85Ap     2.587835    47App    2.602155  
      86Ap     2.605722    87Ap     2.620515    48App    2.633895  
      49App    2.682810    88Ap     2.715545    89Ap     2.734438  
      90Ap     2.777430    91Ap     2.795891    92Ap     2.829121  
      50App    2.872240    93Ap     2.889024    51App    2.938468  
      94Ap     3.036034    95Ap     3.922995    96Ap     4.028011  
      97Ap     5.108043    98Ap     5.516687    99Ap     5.978227  

    Final Occupation by Irrep:
             Ap   App 
    DOCC [    19,    5 ]
    SOCC [     1,    1 ]

  @DF-UKS Final Energy: -1194.47531035927432

   => Energetics <=

    Nuclear Repulsion Energy =            170.3929396686404800
    One-Electron Energy =               -2005.6598125540874662
    Two-Electron Energy =                 700.0680811274451116
    DFT Exchange-Correlation Energy =     -59.4790516831033074
    Empirical Dispersion Energy =           0.0000000000000000
    VV10 Nonlocal Energy =                  0.2025330818307246
    Total Energy =                      -1194.4753103592743173

  UHF NO Occupations:
  HONO-2 :    5App 1.9983567
  HONO-1 :   20 Ap 1.0000000
  HONO-0 :    6App 1.0000000
  LUNO+0 :    7App 0.0016433
  LUNO+1 :   21 Ap 0.0009810
  LUNO+2 :    8App 0.0007409
  LUNO+3 :   22 Ap 0.0003130


Computation Completed


Properties will be evaluated at   0.000000,   0.000000,   0.000000 [a0]

Properties computed using the SCF density matrix

  Nuclear Dipole Moment: [e a0]
     X:     0.0000      Y:    -0.0000      Z:     0.0000

  Electronic Dipole Moment: [e a0]
     X:     0.4130      Y:    -0.4172      Z:     0.0000

  Dipole Moment: [e a0]
     X:     0.4130      Y:    -0.4172      Z:     0.0000     Total:     0.5871

  Dipole Moment: [D]
     X:     1.0498      Y:    -1.0604      Z:     0.0000     Total:     1.4921


*** tstop() called on c2-18.compute.lan at Tue Feb  2 14:51:49 2021
Module time:
	user time   =     423.97 seconds =       7.07 minutes
	system time =      58.41 seconds =       0.97 minutes
	total time  =        722 seconds =      12.03 minutes
Total time:
	user time   =     423.97 seconds =       7.07 minutes
	system time =      58.41 seconds =       0.97 minutes
	total time  =        722 seconds =      12.03 minutes

  //>>>>>>>>>>>>>>>>>>>>>>>>>>>>>>>>>>>//
  //    Loading displacement 2 of 7    //
  //<<<<<<<<<<<<<<<<<<<<<<<<<<<<<<<<<<<//

*** tstart() called on c2-18.compute.lan
*** at Tue Feb  2 14:51:49 2021

   => Loading Basis Set <=

    Name: AUG-CC-PVTZ
    Role: ORBITAL
    Keyword: BASIS
    atoms 1-3 entry S          line   906 file /apps/gb/PSI4/1.4.0/share/psi4/basis/aug-cc-pvtz.gbs 


         ---------------------------------------------------------
                                   SCF
               by Justin Turney, Rob Parrish, Andy Simmonett
                          and Daniel G. A. Smith
                              UKS Reference
                        1 Threads,   9536 MiB Core
         ---------------------------------------------------------

  ==> Geometry <==

    Molecular point group: cs
    Full point group: Cs

    Geometry (in Angstrom), charge = -2, multiplicity = 3:

       Center              X                  Y                   Z               Mass       
    ------------   -----------------  -----------------  -----------------  -----------------
         S            0.605839838422     0.316650793508     0.000000000000    31.972071174400
         S            0.606366824283    -1.683349206492     0.000000000000    31.972071174400
         S           -1.212206662705     1.366698412984     0.000000000000    31.972071174400

  Running in cs symmetry.

  Rotational constants: A =      0.75486  B =      0.08359  C =      0.07526 [cm^-1]
  Rotational constants: A =  22630.03950  B =   2506.05749  C =   2256.20469 [MHz]
  Nuclear repulsion =  170.408352754223131

  Charge       = -2
  Multiplicity = 3
  Electrons    = 50
  Nalpha       = 26
  Nbeta        = 24

  ==> Algorithm <==

  SCF Algorithm Type is DF.
  DIIS enabled.
  MOM disabled.
  Fractional occupation disabled.
  Guess Type is SAD.
  Energy threshold   = 1.00e-08
  Density threshold  = 1.00e-08
  Integral threshold = 0.00e+00

  ==> Primary Basis <==

  Basis Set: AUG-CC-PVTZ
    Blend: AUG-CC-PVTZ
    Number of shells: 48
    Number of basis function: 150
    Number of Cartesian functions: 177
    Spherical Harmonics?: true
    Max angular momentum: 3

  ==> DFT Potential <==

   => Composite Functional: WB97M-V <= 

    wB97M-V Hyb-GGA Exchange-Correlation Functional

    N. Mardirossian and M. Head-Gordon, J. Chem. Phys. 144, 214110 (2016)

    Deriv               =              1
    GGA                 =           TRUE
    Meta                =           TRUE

    Exchange Hybrid     =           TRUE
    MP2 Hybrid          =          FALSE

   => Exchange-Correlation Functionals <=

    1.0000   wB97M-V exchange-correlation functional

   => Exact (HF) Exchange <=

    0.8500            HF,LR [omega = 0.3000]
    0.1500               HF 

   => VV10 Non-Local Parameters <=

    VV10 B              =     6.0000E+00
    VV10 C              =     1.0000E-02

   => Molecular Quadrature <=

    Radial Scheme          =       TREUTLER
    Pruning Scheme         =           NONE
    Nuclear Scheme         =       TREUTLER

    BS radius alpha        =              1
    Pruning alpha          =              1
    Radial Points          =             99
    Spherical Points       =            590
    Total Points           =         169930
    Total Blocks           =           1395
    Max Points             =            256
    Max Functions          =            150
    Weights Tolerance      =       1.00E-15

   => Loading Basis Set <=

    Name: (AUG-CC-PVTZ AUX)
    Role: JKFIT
    Keyword: DF_BASIS_SCF
    atoms 1-3 entry S          line   730 file /apps/gb/PSI4/1.4.0/share/psi4/basis/aug-cc-pvtz-jkfit.gbs 

  ==> Pre-Iterations <==

   -------------------------------------------------------
    Irrep   Nso     Nmo     Nalpha   Nbeta   Ndocc  Nsocc
   -------------------------------------------------------
     A'        99      99       0       0       0       0
     A"        51      51       0       0       0       0
   -------------------------------------------------------
    Total     150     150      26      24      24       2
   -------------------------------------------------------

  ==> Integral Setup <==

  ==> DiskDFJK: Density-Fitted J/K Matrices <==

    J tasked:                  Yes
    K tasked:                  Yes
    wK tasked:                 Yes
    Omega:               3.000E-01
    OpenMP threads:              1
    Integrals threads:           1
    Memory [MiB]:             5488
    Algorithm:                Core
    Integral Cache:           NONE
    Schwarz Cutoff:          1E-12
    Fitting Condition:       1E-10

   => Auxiliary Basis Set <=

  Basis Set: (AUG-CC-PVTZ AUX)
    Blend: AUG-CC-PVTZ-JKFIT
    Number of shells: 126
    Number of basis function: 438
    Number of Cartesian functions: 540
    Spherical Harmonics?: true
    Max angular momentum: 4

  Cached 100.0% of DFT collocation blocks in 1.625 [GiB].

  Minimum eigenvalue in the overlap matrix is 2.2907929932E-04.
  Using Symmetric Orthogonalization.

  SCF Guess: Superposition of Atomic Densities via on-the-fly atomic UHF.

  ==> Iterations <==

                           Total Energy        Delta E     RMS |[F,P]|

   @DF-UKS iter SAD: -1194.00702522081406   -1.19401e+03   0.00000e+00 
   @DF-UKS iter   1: -1194.24017382080910   -2.33149e-01   5.04876e-03 DIIS
   @DF-UKS iter   2: -1194.20595639768044    3.42174e-02   5.66819e-03 DIIS
   @DF-UKS iter   3: -1194.46497478085621   -2.59018e-01   8.49809e-04 DIIS
   @DF-UKS iter   4: -1194.47138589840461   -6.41112e-03   4.92016e-04 DIIS
   @DF-UKS iter   5: -1194.47389883794085   -2.51294e-03   1.64999e-04 DIIS
   @DF-UKS iter   6: -1194.47463249938028   -7.33661e-04   8.25396e-05 DIIS
   @DF-UKS iter   7: -1194.47504980451640   -4.17305e-04   4.95276e-05 DIIS
   @DF-UKS iter   8: -1194.47521550330703   -1.65699e-04   2.95142e-05 DIIS
   @DF-UKS iter   9: -1194.47528379777373   -6.82945e-05   1.59166e-05 DIIS
   @DF-UKS iter  10: -1194.47530248451926   -1.86867e-05   6.56554e-06 DIIS
   @DF-UKS iter  11: -1194.47530735316172   -4.86864e-06   2.16671e-06 DIIS
   @DF-UKS iter  12: -1194.47530790445626   -5.51295e-07   9.66001e-07 DIIS
   @DF-UKS iter  13: -1194.47530801772928   -1.13273e-07   5.02125e-07 DIIS
   @DF-UKS iter  14: -1194.47530804921098   -3.14817e-08   3.91129e-07 DIIS
   @DF-UKS iter  15: -1194.47530807569774   -2.64868e-08   3.08339e-07 DIIS
   @DF-UKS iter  16: -1194.47530810615217   -3.04544e-08   2.34908e-07 DIIS
   @DF-UKS iter  17: -1194.47530812710283   -2.09507e-08   1.69601e-07 DIIS
   @DF-UKS iter  18: -1194.47530813635717   -9.25434e-09   1.06376e-07 DIIS
   @DF-UKS iter  19: -1194.47530813862613   -2.26896e-09   4.74905e-08 DIIS
   @DF-UKS iter  20: -1194.47530813893263   -3.06500e-10   2.40014e-08 DIIS
   @DF-UKS iter  21: -1194.47530813900039   -6.77574e-11   1.39949e-08 DIIS
   @DF-UKS iter  22: -1194.47530813901085   -1.04592e-11   6.71743e-09 DIIS
  Energy and wave function converged.


  ==> Post-Iterations <==

   @Spin Contamination Metric:   7.862072710E-03
   @S^2 Expected:                2.000000000E+00
   @S^2 Observed:                2.007862073E+00
   @S   Expected:                1.000000000E+00
   @S   Observed:                1.000000000E+00

    Orbital Energies [Eh]
    ---------------------

    Alpha Occupied:                                                       

       1Ap   -88.956212     2Ap   -88.881463     3Ap   -88.872143  
       4Ap    -7.862297     5Ap    -7.793845     6Ap    -7.783084  
       7Ap    -5.771366     1App   -5.771356     8Ap    -5.767488  
       9Ap    -5.704489     2App   -5.701668    10Ap    -5.696915  
      11Ap    -5.694336     3App   -5.690547    12Ap    -5.686125  
      13Ap    -0.616028    14Ap    -0.488340    15Ap    -0.372561  
      16Ap    -0.168198     4App   -0.146574    17Ap    -0.145454  
       5App   -0.040661    18Ap    -0.019627    19Ap    -0.012150  
       6App    0.026892    20Ap     0.166304  

    Alpha Virtual:                                                        

      21Ap     0.242341    22Ap     0.290818    23Ap     0.293044  
       7App    0.304947    24Ap     0.308846     8App    0.318693  
       9App    0.321153    25Ap     0.324539    26Ap     0.327452  
      27Ap     0.361719    28Ap     0.368429    29Ap     0.410424  
      30Ap     0.443146    10App    0.486932    31Ap     0.501396  
      11App    0.512789    32Ap     0.530795    33Ap     0.541342  
      34Ap     0.550160    35Ap     0.567359    12App    0.575896  
      13App    0.580516    36Ap     0.591153    14App    0.605368  
      37Ap     0.609402    38Ap     0.632945    15App    0.655968  
      39Ap     0.677096    16App    0.751870    40Ap     0.779225  
      41Ap     0.820251    17App    0.823891    42Ap     0.839318  
      43Ap     0.843229    44Ap     0.850823    18App    0.862943  
      19App    0.867259    45Ap     0.871064    46Ap     0.875435  
      20App    0.880973    47Ap     0.908827    48Ap     0.943782  
      21App    0.948938    49Ap     0.955578    22App    0.969718  
      50Ap     0.974058    51Ap     0.983569    52Ap     1.007131  
      23App    1.010444    24App    1.047784    53Ap     1.048616  
      25App    1.066265    54Ap     1.105696    26App    1.109738  
      55Ap     1.110850    27App    1.128026    56Ap     1.145304  
      57Ap     1.167085    58Ap     1.172954    59Ap     1.254893  
      28App    1.261087    29App    1.298411    60Ap     1.323612  
      30App    1.358845    61Ap     1.362678    31App    1.430081  
      62Ap     1.432858    63Ap     1.446706    64Ap     1.475031  
      65Ap     1.499940    32App    1.517743    33App    1.527204  
      66Ap     1.622299    67Ap     1.635017    68Ap     1.693994  
      69Ap     1.798490    70Ap     2.105090    34App    2.118461  
      35App    2.145129    71Ap     2.153259    36App    2.182211  
      72Ap     2.186921    37App    2.196244    73Ap     2.199264  
      74Ap     2.231270    38App    2.262614    75Ap     2.283462  
      76Ap     2.303826    77Ap     2.319127    39App    2.324359  
      40App    2.334364    78Ap     2.334546    41App    2.357014  
      79Ap     2.363558    42App    2.386682    80Ap     2.399375  
      43App    2.409095    81Ap     2.446438    82Ap     2.467344  
      44App    2.481525    83Ap     2.488264    45App    2.495122  
      84Ap     2.503055    46App    2.567217    85Ap     2.576838  
      47App    2.580692    86Ap     2.589832    87Ap     2.610794  
      48App    2.614078    49App    2.660129    88Ap     2.699776  
      89Ap     2.719667    90Ap     2.764262    91Ap     2.787460  
      92Ap     2.821203    50App    2.853570    93Ap     2.878477  
      51App    2.916250    94Ap     3.030346    95Ap     3.913633  
      96Ap     4.018219    97Ap     5.093357    98Ap     5.501711  
      99Ap     5.956445  

    Beta Occupied:                                                        

       1Ap   -88.952359     2Ap   -88.879447     3Ap   -88.870036  
       4Ap    -7.858154     5Ap    -7.791747     6Ap    -7.780868  
       7Ap    -5.768855     8Ap    -5.763716     1App   -5.759598  
       9Ap    -5.702607    10Ap    -5.695295     2App   -5.695237  
      11Ap    -5.691848    12Ap    -5.684454     3App   -5.684445  
      13Ap    -0.601035    14Ap    -0.475876    15Ap    -0.348182  
      16Ap    -0.154814    17Ap    -0.131984     4App   -0.110428  
      18Ap    -0.009336    19Ap    -0.004459     5App    0.003112  

    Beta Virtual:                                                         

       6App    0.248359    20Ap     0.258980    21Ap     0.267828  
      22Ap     0.300631     7App    0.310661    23Ap     0.313281  
      24Ap     0.322074     8App    0.323257    25Ap     0.341456  
       9App    0.341959    26Ap     0.364727    27Ap     0.372746  
      28Ap     0.403500    29Ap     0.443975    30Ap     0.463258  
      10App    0.492178    31Ap     0.511444    11App    0.522381  
      32Ap     0.553640    33Ap     0.562207    34Ap     0.570085  
      35Ap     0.586724    12App    0.587406    13App    0.589223  
      36Ap     0.618885    14App    0.623542    37Ap     0.631655  
      38Ap     0.651540    15App    0.669514    39Ap     0.696896  
      16App    0.762173    40Ap     0.785892    17App    0.833246  
      41Ap     0.838763    42Ap     0.849781    43Ap     0.855906  
      44Ap     0.868584    18App    0.875448    19App    0.879480  
      45Ap     0.881199    20App    0.893787    46Ap     0.896377  
      47Ap     0.931914    48Ap     0.951689    21App    0.960293  
      49Ap     0.966932    22App    0.977961    50Ap     0.986090  
      51Ap     1.000899    52Ap     1.019591    23App    1.024604  
      24App    1.060595    53Ap     1.065752    25App    1.086465  
      54Ap     1.110864    26App    1.113164    55Ap     1.118212  
      27App    1.133830    56Ap     1.164329    57Ap     1.179917  
      58Ap     1.183314    59Ap     1.260962    28App    1.267374  
      29App    1.307732    60Ap     1.331924    30App    1.367986  
      61Ap     1.370067    31App    1.444189    62Ap     1.447405  
      63Ap     1.456674    64Ap     1.492548    65Ap     1.514922  
      32App    1.535210    33App    1.539458    66Ap     1.644349  
      67Ap     1.647898    68Ap     1.718493    69Ap     1.829625  
      70Ap     2.128480    34App    2.143703    35App    2.161151  
      71Ap     2.171704    36App    2.199389    72Ap     2.203028  
      73Ap     2.213076    37App    2.214357    74Ap     2.242578  
      75Ap     2.288375    38App    2.290432    76Ap     2.313550  
      77Ap     2.328608    39App    2.344385    78Ap     2.345432  
      40App    2.357664    41App    2.370842    79Ap     2.374663  
      42App    2.406201    80Ap     2.412972    43App    2.438967  
      81Ap     2.454233    82Ap     2.477105    44App    2.497256  
      83Ap     2.502250    45App    2.510544    84Ap     2.516915  
      46App    2.578616    85Ap     2.587840    47App    2.602301  
      86Ap     2.605778    87Ap     2.620576    48App    2.633880  
      49App    2.682908    88Ap     2.715636    89Ap     2.734930  
      90Ap     2.777520    91Ap     2.795945    92Ap     2.829145  
      50App    2.872500    93Ap     2.889038    51App    2.938478  
      94Ap     3.036275    95Ap     3.923521    96Ap     4.028103  
      97Ap     5.108772    98Ap     5.516778    99Ap     5.978103  

    Final Occupation by Irrep:
             Ap   App 
    DOCC [    19,    5 ]
    SOCC [     1,    1 ]

  @DF-UKS Final Energy: -1194.47530813901085

   => Energetics <=

    Nuclear Repulsion Energy =            170.4083527542231309
    One-Electron Energy =               -2005.6888839889984411
    Two-Electron Energy =                 700.0818203469906393
    DFT Exchange-Correlation Energy =     -59.4791301683723432
    Empirical Dispersion Energy =           0.0000000000000000
    VV10 Nonlocal Energy =                  0.2025329171460881
    Total Energy =                      -1194.4753081390110765

  UHF NO Occupations:
  HONO-2 :    5App 1.9983569
  HONO-1 :   20 Ap 1.0000000
  HONO-0 :    6App 1.0000000
  LUNO+0 :    7App 0.0016431
  LUNO+1 :   21 Ap 0.0009795
  LUNO+2 :    8App 0.0007405
  LUNO+3 :   22 Ap 0.0003128


Computation Completed


Properties will be evaluated at   0.000000,   0.000000,   0.000000 [a0]

Properties computed using the SCF density matrix

  Nuclear Dipole Moment: [e a0]
     X:     0.0000      Y:     0.0000      Z:     0.0000

  Electronic Dipole Moment: [e a0]
     X:     0.4112      Y:    -0.4133      Z:     0.0000

  Dipole Moment: [e a0]
     X:     0.4112      Y:    -0.4133      Z:     0.0000     Total:     0.5830

  Dipole Moment: [D]
     X:     1.0452      Y:    -1.0504      Z:     0.0000     Total:     1.4818


*** tstop() called on c2-18.compute.lan at Tue Feb  2 15:01:14 2021
Module time:
	user time   =     425.84 seconds =       7.10 minutes
	system time =       1.38 seconds =       0.02 minutes
	total time  =        565 seconds =       9.42 minutes
Total time:
	user time   =     849.82 seconds =      14.16 minutes
	system time =      59.79 seconds =       1.00 minutes
	total time  =       1287 seconds =      21.45 minutes

  //>>>>>>>>>>>>>>>>>>>>>>>>>>>>>>>>>>>//
  //    Loading displacement 3 of 7    //
  //<<<<<<<<<<<<<<<<<<<<<<<<<<<<<<<<<<<//

*** tstart() called on c2-18.compute.lan
*** at Tue Feb  2 15:01:14 2021

   => Loading Basis Set <=

    Name: AUG-CC-PVTZ
    Role: ORBITAL
    Keyword: BASIS
    atoms 1-3 entry S          line   906 file /apps/gb/PSI4/1.4.0/share/psi4/basis/aug-cc-pvtz.gbs 


         ---------------------------------------------------------
                                   SCF
               by Justin Turney, Rob Parrish, Andy Simmonett
                          and Daniel G. A. Smith
                              UKS Reference
                        1 Threads,   9536 MiB Core
         ---------------------------------------------------------

  ==> Geometry <==

    Molecular point group: cs
    Full point group: Cs

    Geometry (in Angstrom), charge = -2, multiplicity = 3:

       Center              X                  Y                   Z               Mass       
    ------------   -----------------  -----------------  -----------------  -----------------
         S            0.606595726876     0.316682539825     0.000000000000    31.972071174400
         S            0.606068741015    -1.683317460175     0.000000000000    31.972071174400
         S           -1.212664467891     1.366634920350     0.000000000000    31.972071174400

  Running in cs symmetry.

  Rotational constants: A =      0.75340  B =      0.08359  C =      0.07524 [cm^-1]
  Rotational constants: A =  22586.29300  B =   2506.03684  C =   2255.75236 [MHz]
  Nuclear repulsion =  170.377527481310580

  Charge       = -2
  Multiplicity = 3
  Electrons    = 50
  Nalpha       = 26
  Nbeta        = 24

  ==> Algorithm <==

  SCF Algorithm Type is DF.
  DIIS enabled.
  MOM disabled.
  Fractional occupation disabled.
  Guess Type is SAD.
  Energy threshold   = 1.00e-08
  Density threshold  = 1.00e-08
  Integral threshold = 0.00e+00

  ==> Primary Basis <==

  Basis Set: AUG-CC-PVTZ
    Blend: AUG-CC-PVTZ
    Number of shells: 48
    Number of basis function: 150
    Number of Cartesian functions: 177
    Spherical Harmonics?: true
    Max angular momentum: 3

  ==> DFT Potential <==

   => Composite Functional: WB97M-V <= 

    wB97M-V Hyb-GGA Exchange-Correlation Functional

    N. Mardirossian and M. Head-Gordon, J. Chem. Phys. 144, 214110 (2016)

    Deriv               =              1
    GGA                 =           TRUE
    Meta                =           TRUE

    Exchange Hybrid     =           TRUE
    MP2 Hybrid          =          FALSE

   => Exchange-Correlation Functionals <=

    1.0000   wB97M-V exchange-correlation functional

   => Exact (HF) Exchange <=

    0.8500            HF,LR [omega = 0.3000]
    0.1500               HF 

   => VV10 Non-Local Parameters <=

    VV10 B              =     6.0000E+00
    VV10 C              =     1.0000E-02

   => Molecular Quadrature <=

    Radial Scheme          =       TREUTLER
    Pruning Scheme         =           NONE
    Nuclear Scheme         =       TREUTLER

    BS radius alpha        =              1
    Pruning alpha          =              1
    Radial Points          =             99
    Spherical Points       =            590
    Total Points           =         169928
    Total Blocks           =           1392
    Max Points             =            256
    Max Functions          =            150
    Weights Tolerance      =       1.00E-15

   => Loading Basis Set <=

    Name: (AUG-CC-PVTZ AUX)
    Role: JKFIT
    Keyword: DF_BASIS_SCF
    atoms 1-3 entry S          line   730 file /apps/gb/PSI4/1.4.0/share/psi4/basis/aug-cc-pvtz-jkfit.gbs 

  ==> Pre-Iterations <==

   -------------------------------------------------------
    Irrep   Nso     Nmo     Nalpha   Nbeta   Ndocc  Nsocc
   -------------------------------------------------------
     A'        99      99       0       0       0       0
     A"        51      51       0       0       0       0
   -------------------------------------------------------
    Total     150     150      26      24      24       2
   -------------------------------------------------------

  ==> Integral Setup <==

  ==> DiskDFJK: Density-Fitted J/K Matrices <==

    J tasked:                  Yes
    K tasked:                  Yes
    wK tasked:                 Yes
    Omega:               3.000E-01
    OpenMP threads:              1
    Integrals threads:           1
    Memory [MiB]:             5488
    Algorithm:                Core
    Integral Cache:           NONE
    Schwarz Cutoff:          1E-12
    Fitting Condition:       1E-10

   => Auxiliary Basis Set <=

  Basis Set: (AUG-CC-PVTZ AUX)
    Blend: AUG-CC-PVTZ-JKFIT
    Number of shells: 126
    Number of basis function: 438
    Number of Cartesian functions: 540
    Spherical Harmonics?: true
    Max angular momentum: 4

  Cached 100.0% of DFT collocation blocks in 1.625 [GiB].

  Minimum eigenvalue in the overlap matrix is 2.2923091700E-04.
  Using Symmetric Orthogonalization.

  SCF Guess: Superposition of Atomic Densities via on-the-fly atomic UHF.

  ==> Iterations <==

                           Total Energy        Delta E     RMS |[F,P]|

   @DF-UKS iter SAD: -1194.00598501560467   -1.19401e+03   0.00000e+00 
   @DF-UKS iter   1: -1194.24017083521039   -2.34186e-01   5.04938e-03 DIIS
   @DF-UKS iter   2: -1194.20507734601142    3.50935e-02   5.67489e-03 DIIS
   @DF-UKS iter   3: -1194.46488847241608   -2.59811e-01   8.55213e-04 DIIS
   @DF-UKS iter   4: -1194.47137803220812   -6.48956e-03   4.93024e-04 DIIS
   @DF-UKS iter   5: -1194.47390144108635   -2.52341e-03   1.65183e-04 DIIS
   @DF-UKS iter   6: -1194.47463620483450   -7.34764e-04   8.26621e-05 DIIS
   @DF-UKS iter   7: -1194.47505441946214   -4.18215e-04   4.94270e-05 DIIS
   @DF-UKS iter   8: -1194.47522040482863   -1.65985e-04   2.94651e-05 DIIS
   @DF-UKS iter   9: -1194.47528812827659   -6.77234e-05   1.59562e-05 DIIS
   @DF-UKS iter  10: -1194.47530680458794   -1.86763e-05   6.57836e-06 DIIS
   @DF-UKS iter  11: -1194.47531167891339   -4.87433e-06   2.17611e-06 DIIS
   @DF-UKS iter  12: -1194.47531223521537   -5.56302e-07   9.71685e-07 DIIS
   @DF-UKS iter  13: -1194.47531234995222   -1.14737e-07   5.08193e-07 DIIS
   @DF-UKS iter  14: -1194.47531238233273   -3.23805e-08   3.97086e-07 DIIS
   @DF-UKS iter  15: -1194.47531240980197   -2.74692e-08   3.13399e-07 DIIS
   @DF-UKS iter  16: -1194.47531244153834   -3.17364e-08   2.38497e-07 DIIS
   @DF-UKS iter  17: -1194.47531246320023   -2.16619e-08   1.72189e-07 DIIS
   @DF-UKS iter  18: -1194.47531247272673   -9.52650e-09   1.07390e-07 DIIS
   @DF-UKS iter  19: -1194.47531247501956   -2.29284e-09   4.78920e-08 DIIS
   @DF-UKS iter  20: -1194.47531247532424   -3.04681e-10   2.41479e-08 DIIS
   @DF-UKS iter  21: -1194.47531247539519   -7.09406e-11   1.41305e-08 DIIS
   @DF-UKS iter  22: -1194.47531247540837   -1.31877e-11   6.77938e-09 DIIS
  Energy and wave function converged.


  ==> Post-Iterations <==

   @Spin Contamination Metric:   7.872150905E-03
   @S^2 Expected:                2.000000000E+00
   @S^2 Observed:                2.007872151E+00
   @S   Expected:                1.000000000E+00
   @S   Observed:                1.000000000E+00

    Orbital Energies [Eh]
    ---------------------

    Alpha Occupied:                                                       

       1Ap   -88.956162     2Ap   -88.881454     3Ap   -88.872043  
       4Ap    -7.862244     5Ap    -7.793836     6Ap    -7.782971  
       7Ap    -5.771312     1App   -5.771304     8Ap    -5.767437  
       9Ap    -5.704479     2App   -5.701660    10Ap    -5.696906  
      11Ap    -5.694228     3App   -5.690434    12Ap    -5.686011  
      13Ap    -0.615892    14Ap    -0.488158    15Ap    -0.372575  
      16Ap    -0.168094     4App   -0.146474    17Ap    -0.145377  
       5App   -0.040558    18Ap    -0.019559    19Ap    -0.012095  
       6App    0.026886    20Ap     0.166235  

    Alpha Virtual:                                                        

      21Ap     0.242366    22Ap     0.290837    23Ap     0.293033  
       7App    0.304973    24Ap     0.308926     8App    0.318744  
       9App    0.321180    25Ap     0.324559    26Ap     0.327491  
      27Ap     0.361780    28Ap     0.368539    29Ap     0.410521  
      30Ap     0.443141    10App    0.486997    31Ap     0.501502  
      11App    0.512826    32Ap     0.530896    33Ap     0.541411  
      34Ap     0.550212    35Ap     0.567363    12App    0.575879  
      13App    0.580605    36Ap     0.591261    14App    0.605417  
      37Ap     0.609434    38Ap     0.633021    15App    0.655985  
      39Ap     0.677133    16App    0.751926    40Ap     0.779325  
      41Ap     0.820328    17App    0.824007    42Ap     0.839392  
      43Ap     0.843321    44Ap     0.850920    18App    0.863004  
      19App    0.867251    45Ap     0.871124    46Ap     0.875564  
      20App    0.881008    47Ap     0.908828    48Ap     0.943814  
      21App    0.948972    49Ap     0.955663    22App    0.969847  
      50Ap     0.974147    51Ap     0.983573    52Ap     1.007101  
      23App    1.010491    24App    1.047866    53Ap     1.048672  
      25App    1.066197    54Ap     1.105715    26App    1.109818  
      55Ap     1.110866    27App    1.127958    56Ap     1.145094  
      57Ap     1.167081    58Ap     1.172967    59Ap     1.254868  
      28App    1.261193    29App    1.298362    60Ap     1.323571  
      30App    1.358705    61Ap     1.362517    31App    1.430069  
      62Ap     1.432965    63Ap     1.446583    64Ap     1.474930  
      65Ap     1.499955    32App    1.517698    33App    1.527044  
      66Ap     1.622092    67Ap     1.634869    68Ap     1.693974  
      69Ap     1.798474    70Ap     2.105186    34App    2.118517  
      35App    2.145127    71Ap     2.153334    36App    2.182232  
      72Ap     2.186921    37App    2.196287    73Ap     2.199202  
      74Ap     2.231514    38App    2.262658    75Ap     2.283391  
      76Ap     2.303963    77Ap     2.319208    39App    2.324469  
      40App    2.334472    78Ap     2.334736    41App    2.357074  
      79Ap     2.363786    42App    2.386807    80Ap     2.399494  
      43App    2.409166    81Ap     2.446615    82Ap     2.467350  
      44App    2.481528    83Ap     2.488351    45App    2.495209  
      84Ap     2.503169    46App    2.567304    85Ap     2.576821  
      47App    2.580372    86Ap     2.589733    87Ap     2.610645  
      48App    2.614104    49App    2.659946    88Ap     2.699603  
      89Ap     2.718666    90Ap     2.764097    91Ap     2.787319  
      92Ap     2.821141    50App    2.853036    93Ap     2.878464  
      51App    2.916241    94Ap     3.029856    95Ap     3.912606  
      96Ap     4.018034    97Ap     5.091911    98Ap     5.501541  
      99Ap     5.956701  

    Beta Occupied:                                                        

       1Ap   -88.952307     2Ap   -88.879439     3Ap   -88.869933  
       4Ap    -7.858099     5Ap    -7.791738     6Ap    -7.780751  
       7Ap    -5.768799     8Ap    -5.763661     1App   -5.759543  
       9Ap    -5.702597    10Ap    -5.695286     2App   -5.695229  
      11Ap    -5.691730    12Ap    -5.684338     3App   -5.684330  
      13Ap    -0.600889    14Ap    -0.475675    15Ap    -0.348187  
      16Ap    -0.154698    17Ap    -0.131884     4App   -0.110310  
      18Ap    -0.009249    19Ap    -0.004403     5App    0.003225  

    Beta Virtual:                                                         

       6App    0.248350    20Ap     0.258961    21Ap     0.267844  
      22Ap     0.300658     7App    0.310669    23Ap     0.313282  
      24Ap     0.322121     8App    0.323294    25Ap     0.341462  
       9App    0.341957    26Ap     0.364747    27Ap     0.372754  
      28Ap     0.403429    29Ap     0.444012    30Ap     0.463252  
      10App    0.492238    31Ap     0.511546    11App    0.522408  
      32Ap     0.553695    33Ap     0.562221    34Ap     0.570071  
      35Ap     0.586716    12App    0.587423    13App    0.589258  
      36Ap     0.618946    14App    0.623557    37Ap     0.631647  
      38Ap     0.651557    15App    0.669491    39Ap     0.696890  
      16App    0.762228    40Ap     0.785985    17App    0.833348  
      41Ap     0.838812    42Ap     0.849820    43Ap     0.856024  
      44Ap     0.868636    18App    0.875481    19App    0.879472  
      45Ap     0.881226    20App    0.893823    46Ap     0.896485  
      47Ap     0.931903    48Ap     0.951735    21App    0.960316  
      49Ap     0.966989    22App    0.978091    50Ap     0.986183  
      51Ap     1.000882    52Ap     1.019550    23App    1.024659  
      24App    1.060665    53Ap     1.065809    25App    1.086381  
      54Ap     1.110905    26App    1.113246    55Ap     1.118201  
      27App    1.133756    56Ap     1.164104    57Ap     1.179935  
      58Ap     1.183287    59Ap     1.260930    28App    1.267477  
      29App    1.307683    60Ap     1.331874    30App    1.367849  
      61Ap     1.369910    31App    1.444157    62Ap     1.447448  
      63Ap     1.456584    64Ap     1.492431    65Ap     1.514934  
      32App    1.535149    33App    1.539304    66Ap     1.644124  
      67Ap     1.647742    68Ap     1.718460    69Ap     1.829602  
      70Ap     2.128573    34App    2.143762    35App    2.161154  
      71Ap     2.171780    36App    2.199429    72Ap     2.202975  
      73Ap     2.213040    37App    2.214412    74Ap     2.242850  
      75Ap     2.288323    38App    2.290488    76Ap     2.313687  
      77Ap     2.328737    39App    2.344515    78Ap     2.345580  
      40App    2.357748    41App    2.370902    79Ap     2.374906  
      42App    2.406354    80Ap     2.413106    43App    2.439020  
      81Ap     2.454418    82Ap     2.477124    44App    2.497261  
      83Ap     2.502328    45App    2.510632    84Ap     2.517021  
      46App    2.578713    85Ap     2.587829    47App    2.602009  
      86Ap     2.605665    87Ap     2.620454    48App    2.633909  
      49App    2.682713    88Ap     2.715454    89Ap     2.733948  
      90Ap     2.777340    91Ap     2.795837    92Ap     2.829098  
      50App    2.871980    93Ap     2.889010    51App    2.938458  
      94Ap     3.035794    95Ap     3.922466    96Ap     4.027920  
      97Ap     5.107315    98Ap     5.516597    99Ap     5.978351  

    Final Occupation by Irrep:
             Ap   App 
    DOCC [    19,    5 ]
    SOCC [     1,    1 ]

  @DF-UKS Final Energy: -1194.47531247540837

   => Energetics <=

    Nuclear Repulsion Energy =            170.3775274813105796
    One-Electron Energy =               -2005.6307515908290497
    Two-Electron Energy =                 700.0543518617113250
    DFT Exchange-Correlation Energy =     -59.4789734739067200
    Empirical Dispersion Energy =           0.0000000000000000
    VV10 Nonlocal Energy =                  0.2025332463056123
    Total Energy =                      -1194.4753124754083728

  UHF NO Occupations:
  HONO-2 :    5App 1.9983565
  HONO-1 :   20 Ap 1.0000000
  HONO-0 :    6App 1.0000000
  LUNO+0 :    7App 0.0016435
  LUNO+1 :   21 Ap 0.0009825
  LUNO+2 :    8App 0.0007414
  LUNO+3 :   22 Ap 0.0003131


Computation Completed


Properties will be evaluated at   0.000000,   0.000000,   0.000000 [a0]

Properties computed using the SCF density matrix

  Nuclear Dipole Moment: [e a0]
     X:     0.0000      Y:    -0.0000      Z:     0.0000

  Electronic Dipole Moment: [e a0]
     X:     0.4148      Y:    -0.4211      Z:     0.0000

  Dipole Moment: [e a0]
     X:     0.4148      Y:    -0.4211      Z:     0.0000     Total:     0.5911

  Dipole Moment: [D]
     X:     1.0544      Y:    -1.0704      Z:     0.0000     Total:     1.5025


*** tstop() called on c2-18.compute.lan at Tue Feb  2 15:09:29 2021
Module time:
	user time   =     428.90 seconds =       7.15 minutes
	system time =       1.39 seconds =       0.02 minutes
	total time  =        495 seconds =       8.25 minutes
Total time:
	user time   =    1278.73 seconds =      21.31 minutes
	system time =      61.18 seconds =       1.02 minutes
	total time  =       1782 seconds =      29.70 minutes

  //>>>>>>>>>>>>>>>>>>>>>>>>>>>>>>>>>>>//
  //    Loading displacement 4 of 7    //
  //<<<<<<<<<<<<<<<<<<<<<<<<<<<<<<<<<<<//

*** tstart() called on c2-18.compute.lan
*** at Tue Feb  2 15:09:29 2021

   => Loading Basis Set <=

    Name: AUG-CC-PVTZ
    Role: ORBITAL
    Keyword: BASIS
    atoms 1-3 entry S          line   906 file /apps/gb/PSI4/1.4.0/share/psi4/basis/aug-cc-pvtz.gbs 


         ---------------------------------------------------------
                                   SCF
               by Justin Turney, Rob Parrish, Andy Simmonett
                          and Daniel G. A. Smith
                              UKS Reference
                        1 Threads,   9536 MiB Core
         ---------------------------------------------------------

  ==> Geometry <==

    Molecular point group: cs
    Full point group: Cs

    Geometry (in Angstrom), charge = -2, multiplicity = 3:

       Center              X                  Y                   Z               Mass       
    ------------   -----------------  -----------------  -----------------  -----------------
         S            0.606217782649     0.316300280266     0.000000000000    31.972071174400
         S            0.606298365760    -1.683102090053     0.000000000000    31.972071174400
         S           -1.212516148409     1.366801809787     0.000000000000    31.972071174400

  Running in cs symmetry.

  Rotational constants: A =      0.75455  B =      0.08359  C =      0.07526 [cm^-1]
  Rotational constants: A =  22620.87925  B =   2506.02908  C =   2256.09058 [MHz]
  Nuclear repulsion =  170.403339179731688

  Charge       = -2
  Multiplicity = 3
  Electrons    = 50
  Nalpha       = 26
  Nbeta        = 24

  ==> Algorithm <==

  SCF Algorithm Type is DF.
  DIIS enabled.
  MOM disabled.
  Fractional occupation disabled.
  Guess Type is SAD.
  Energy threshold   = 1.00e-08
  Density threshold  = 1.00e-08
  Integral threshold = 0.00e+00

  ==> Primary Basis <==

  Basis Set: AUG-CC-PVTZ
    Blend: AUG-CC-PVTZ
    Number of shells: 48
    Number of basis function: 150
    Number of Cartesian functions: 177
    Spherical Harmonics?: true
    Max angular momentum: 3

  ==> DFT Potential <==

   => Composite Functional: WB97M-V <= 

    wB97M-V Hyb-GGA Exchange-Correlation Functional

    N. Mardirossian and M. Head-Gordon, J. Chem. Phys. 144, 214110 (2016)

    Deriv               =              1
    GGA                 =           TRUE
    Meta                =           TRUE

    Exchange Hybrid     =           TRUE
    MP2 Hybrid          =          FALSE

   => Exchange-Correlation Functionals <=

    1.0000   wB97M-V exchange-correlation functional

   => Exact (HF) Exchange <=

    0.8500            HF,LR [omega = 0.3000]
    0.1500               HF 

   => VV10 Non-Local Parameters <=

    VV10 B              =     6.0000E+00
    VV10 C              =     1.0000E-02

   => Molecular Quadrature <=

    Radial Scheme          =       TREUTLER
    Pruning Scheme         =           NONE
    Nuclear Scheme         =       TREUTLER

    BS radius alpha        =              1
    Pruning alpha          =              1
    Radial Points          =             99
    Spherical Points       =            590
    Total Points           =         169929
    Total Blocks           =           1388
    Max Points             =            256
    Max Functions          =            150
    Weights Tolerance      =       1.00E-15

   => Loading Basis Set <=

    Name: (AUG-CC-PVTZ AUX)
    Role: JKFIT
    Keyword: DF_BASIS_SCF
    atoms 1-3 entry S          line   730 file /apps/gb/PSI4/1.4.0/share/psi4/basis/aug-cc-pvtz-jkfit.gbs 

  ==> Pre-Iterations <==

   -------------------------------------------------------
    Irrep   Nso     Nmo     Nalpha   Nbeta   Ndocc  Nsocc
   -------------------------------------------------------
     A'        99      99       0       0       0       0
     A"        51      51       0       0       0       0
   -------------------------------------------------------
    Total     150     150      26      24      24       2
   -------------------------------------------------------

  ==> Integral Setup <==

  ==> DiskDFJK: Density-Fitted J/K Matrices <==

    J tasked:                  Yes
    K tasked:                  Yes
    wK tasked:                 Yes
    Omega:               3.000E-01
    OpenMP threads:              1
    Integrals threads:           1
    Memory [MiB]:             5488
    Algorithm:                Core
    Integral Cache:           NONE
    Schwarz Cutoff:          1E-12
    Fitting Condition:       1E-10

   => Auxiliary Basis Set <=

  Basis Set: (AUG-CC-PVTZ AUX)
    Blend: AUG-CC-PVTZ-JKFIT
    Number of shells: 126
    Number of basis function: 438
    Number of Cartesian functions: 540
    Spherical Harmonics?: true
    Max angular momentum: 4

  Cached 100.0% of DFT collocation blocks in 1.625 [GiB].

  Minimum eigenvalue in the overlap matrix is 2.2887036555E-04.
  Using Symmetric Orthogonalization.

  SCF Guess: Superposition of Atomic Densities via on-the-fly atomic UHF.

  ==> Iterations <==

                           Total Energy        Delta E     RMS |[F,P]|

   @DF-UKS iter SAD: -1194.00692596103227   -1.19401e+03   0.00000e+00 
   @DF-UKS iter   1: -1194.24009391183654   -2.33168e-01   5.04973e-03 DIIS
   @DF-UKS iter   2: -1194.20472153789046    3.53724e-02   5.67730e-03 DIIS
   @DF-UKS iter   3: -1194.46482398302942   -2.60102e-01   8.57129e-04 DIIS
   @DF-UKS iter   4: -1194.47134332750124   -6.51934e-03   4.93576e-04 DIIS
   @DF-UKS iter   5: -1194.47387337836699   -2.53005e-03   1.65296e-04 DIIS
   @DF-UKS iter   6: -1194.47460984051531   -7.36462e-04   8.27385e-05 DIIS
   @DF-UKS iter   7: -1194.47502904205135   -4.19202e-04   4.94835e-05 DIIS
   @DF-UKS iter   8: -1194.47519541343036   -1.66371e-04   2.94962e-05 DIIS
   @DF-UKS iter   9: -1194.47526341713706   -6.80037e-05   1.59806e-05 DIIS
   @DF-UKS iter  10: -1194.47528218507773   -1.87679e-05   6.59116e-06 DIIS
   @DF-UKS iter  11: -1194.47528708727668   -4.90220e-06   2.18248e-06 DIIS
   @DF-UKS iter  12: -1194.47528764852359   -5.61247e-07   9.76421e-07 DIIS
   @DF-UKS iter  13: -1194.47528776483477   -1.16311e-07   5.13679e-07 DIIS
   @DF-UKS iter  14: -1194.47528779807635   -3.32416e-08   4.02172e-07 DIIS
   @DF-UKS iter  15: -1194.47528782642894   -2.83526e-08   3.17370e-07 DIIS
   @DF-UKS iter  16: -1194.47528785924351   -3.28146e-08   2.40766e-07 DIIS
   @DF-UKS iter  17: -1194.47528788141130   -2.21678e-08   1.73107e-07 DIIS
   @DF-UKS iter  18: -1194.47528789095213   -9.54083e-09   1.07642e-07 DIIS
   @DF-UKS iter  19: -1194.47528789321223   -2.26009e-09   4.79533e-08 DIIS
   @DF-UKS iter  20: -1194.47528789351327   -3.01043e-10   2.42533e-08 DIIS
   @DF-UKS iter  21: -1194.47528789358262   -6.93490e-11   1.42002e-08 DIIS
   @DF-UKS iter  22: -1194.47528789360467   -2.20552e-11   6.82984e-09 DIIS
  Energy and wave function converged.


  ==> Post-Iterations <==

   @Spin Contamination Metric:   7.868251405E-03
   @S^2 Expected:                2.000000000E+00
   @S^2 Observed:                2.007868251E+00
   @S   Expected:                1.000000000E+00
   @S   Observed:                1.000000000E+00

    Orbital Energies [Eh]
    ---------------------

    Alpha Occupied:                                                       

       1Ap   -88.956156     2Ap   -88.881486     3Ap   -88.872033  
       4Ap    -7.862247     5Ap    -7.793879     6Ap    -7.782965  
       7Ap    -5.771315     1App   -5.771306     8Ap    -5.767437  
       9Ap    -5.704518     2App   -5.701704    10Ap    -5.696949  
      11Ap    -5.694221     3App   -5.690425    12Ap    -5.686005  
      13Ap    -0.616028    14Ap    -0.488236    15Ap    -0.372537  
      16Ap    -0.168165     4App   -0.146554    17Ap    -0.145432  
       5App   -0.040595    18Ap    -0.019601    19Ap    -0.012082  
       6App    0.026920    20Ap     0.166273  

    Alpha Virtual:                                                        

      21Ap     0.242351    22Ap     0.290825    23Ap     0.293028  
       7App    0.304949    24Ap     0.308910     8App    0.318732  
       9App    0.321176    25Ap     0.324546    26Ap     0.327487  
      27Ap     0.361736    28Ap     0.368540    29Ap     0.410484  
      30Ap     0.443200    10App    0.486958    31Ap     0.501437  
      11App    0.512818    32Ap     0.530843    33Ap     0.541405  
      34Ap     0.550200    35Ap     0.567387    12App    0.575910  
      13App    0.580557    36Ap     0.591209    14App    0.605404  
      37Ap     0.609455    38Ap     0.632999    15App    0.655997  
      39Ap     0.677134    16App    0.751888    40Ap     0.779258  
      41Ap     0.820259    17App    0.823943    42Ap     0.839345  
      43Ap     0.843282    44Ap     0.850900    18App    0.862978  
      19App    0.867275    45Ap     0.871090    46Ap     0.875523  
      20App    0.881004    47Ap     0.908854    48Ap     0.943774  
      21App    0.948947    49Ap     0.955668    22App    0.969805  
      50Ap     0.974105    51Ap     0.983592    52Ap     1.007178  
      23App    1.010481    24App    1.047822    53Ap     1.048650  
      25App    1.066291    54Ap     1.105702    26App    1.109778  
      55Ap     1.110893    27App    1.128038    56Ap     1.145227  
      57Ap     1.167215    58Ap     1.172980    59Ap     1.254910  
      28App    1.261134    29App    1.298415    60Ap     1.323608  
      30App    1.358839    61Ap     1.362684    31App    1.430102  
      62Ap     1.432891    63Ap     1.446728    64Ap     1.475043  
      65Ap     1.500001    32App    1.517771    33App    1.527197  
      66Ap     1.622263    67Ap     1.635016    68Ap     1.694024  
      69Ap     1.798490    70Ap     2.105130    34App    2.118474  
      35App    2.145115    71Ap     2.153279    36App    2.182165  
      72Ap     2.186933    37App    2.196292    73Ap     2.199117  
      74Ap     2.231513    38App    2.262582    75Ap     2.283353  
      76Ap     2.303892    77Ap     2.319133    39App    2.324421  
      40App    2.334550    78Ap     2.334712    41App    2.357107  
      79Ap     2.363698    42App    2.386703    80Ap     2.399456  
      43App    2.409141    81Ap     2.446494    82Ap     2.467365  
      44App    2.481510    83Ap     2.488334    45App    2.495215  
      84Ap     2.503123    46App    2.567265    85Ap     2.576830  
      47App    2.580459    86Ap     2.589755    87Ap     2.610795  
      48App    2.614313    49App    2.660209    88Ap     2.699724  
      89Ap     2.718902    90Ap     2.764307    91Ap     2.787528  
      92Ap     2.821201    50App    2.853145    93Ap     2.879344  
      51App    2.916634    94Ap     3.030356    95Ap     3.912771  
      96Ap     4.018398    97Ap     5.093064    98Ap     5.501919  
      99Ap     5.956785  

    Beta Occupied:                                                        

       1Ap   -88.952302     2Ap   -88.879471     3Ap   -88.869924  
       4Ap    -7.858102     5Ap    -7.791781     6Ap    -7.780746  
       7Ap    -5.768801     8Ap    -5.763664     1App   -5.759547  
       9Ap    -5.702639    10Ap    -5.695329     2App   -5.695271  
      11Ap    -5.691726    12Ap    -5.684333     3App   -5.684325  
      13Ap    -0.601035    14Ap    -0.475759    15Ap    -0.348152  
      16Ap    -0.154773    17Ap    -0.131952     4App   -0.110402  
      18Ap    -0.009291    19Ap    -0.004393     5App    0.003178  

    Beta Virtual:                                                         

       6App    0.248382    20Ap     0.258965    21Ap     0.267849  
      22Ap     0.300651     7App    0.310657    23Ap     0.313259  
      24Ap     0.322118     8App    0.323287    25Ap     0.341465  
       9App    0.341964    26Ap     0.364741    27Ap     0.372753  
      28Ap     0.403521    29Ap     0.443997    30Ap     0.463285  
      10App    0.492201    31Ap     0.511478    11App    0.522407  
      32Ap     0.553666    33Ap     0.562212    34Ap     0.570106  
      35Ap     0.586745    12App    0.587414    13App    0.589257  
      36Ap     0.618910    14App    0.623558    37Ap     0.631672  
      38Ap     0.651575    15App    0.669525    39Ap     0.696910  
      16App    0.762189    40Ap     0.785922    17App    0.833293  
      41Ap     0.838768    42Ap     0.849767    43Ap     0.855981  
      44Ap     0.868624    18App    0.875466    19App    0.879498  
      45Ap     0.881224    20App    0.893811    46Ap     0.896433  
      47Ap     0.931921    48Ap     0.951705    21App    0.960300  
      49Ap     0.966996    22App    0.978047    50Ap     0.986142  
      51Ap     1.000908    52Ap     1.019632    23App    1.024641  
      24App    1.060629    53Ap     1.065782    25App    1.086481  
      54Ap     1.110885    26App    1.113206    55Ap     1.118241  
      27App    1.133838    56Ap     1.164220    57Ap     1.179946  
      58Ap     1.183445    59Ap     1.260979    28App    1.267420  
      29App    1.307735    60Ap     1.331915    30App    1.367981  
      61Ap     1.370078    31App    1.444202    62Ap     1.447405  
      63Ap     1.456718    64Ap     1.492540    65Ap     1.514981  
      32App    1.535225    33App    1.539454    66Ap     1.644300  
      67Ap     1.647891    68Ap     1.718518    69Ap     1.829615  
      70Ap     2.128519    34App    2.143714    35App    2.161136  
      71Ap     2.171728    36App    2.199345    72Ap     2.202963  
      73Ap     2.212983    37App    2.214414    74Ap     2.242837  
      75Ap     2.288285    38App    2.290411    76Ap     2.313619  
      77Ap     2.328684    39App    2.344490    78Ap     2.345534  
      40App    2.357815    41App    2.370927    79Ap     2.374816  
      42App    2.406229    80Ap     2.413054    43App    2.439016  
      81Ap     2.454292    82Ap     2.477143    44App    2.497247  
      83Ap     2.502309    45App    2.510631    84Ap     2.516979  
      46App    2.578667    85Ap     2.587828    47App    2.602086  
      86Ap     2.605692    87Ap     2.620598    48App    2.634103  
      49App    2.682995    88Ap     2.715573    89Ap     2.734181  
      90Ap     2.777557    91Ap     2.796032    92Ap     2.829147  
      50App    2.872079    93Ap     2.889905    51App    2.938860  
      94Ap     3.036291    95Ap     3.922639    96Ap     4.028299  
      97Ap     5.108473    98Ap     5.516979    99Ap     5.978432  

    Final Occupation by Irrep:
             Ap   App 
    DOCC [    19,    5 ]
    SOCC [     1,    1 ]

  @DF-UKS Final Energy: -1194.47528789360467

   => Energetics <=

    Nuclear Repulsion Energy =            170.4033391797316881
    One-Electron Energy =               -2005.6809804027725477
    Two-Electron Energy =                 700.0789814123990027
    DFT Exchange-Correlation Energy =     -59.4791609330902986
    Empirical Dispersion Energy =           0.0000000000000000
    VV10 Nonlocal Energy =                  0.2025328501274712
    Total Energy =                      -1194.4752878936046727

  UHF NO Occupations:
  HONO-2 :    5App 1.9983569
  HONO-1 :   20 Ap 1.0000000
  HONO-0 :    6App 1.0000000
  LUNO+0 :    7App 0.0016431
  LUNO+1 :   21 Ap 0.0009819
  LUNO+2 :    8App 0.0007408
  LUNO+3 :   22 Ap 0.0003131


Computation Completed


Properties will be evaluated at   0.000000,   0.000000,   0.000000 [a0]

Properties computed using the SCF density matrix

  Nuclear Dipole Moment: [e a0]
     X:     0.0000      Y:    -0.0000      Z:     0.0000

  Electronic Dipole Moment: [e a0]
     X:     0.4156      Y:    -0.4207      Z:     0.0000

  Dipole Moment: [e a0]
     X:     0.4156      Y:    -0.4207      Z:     0.0000     Total:     0.5914

  Dipole Moment: [D]
     X:     1.0562      Y:    -1.0694      Z:     0.0000     Total:     1.5031


*** tstop() called on c2-18.compute.lan at Tue Feb  2 15:17:49 2021
Module time:
	user time   =     429.50 seconds =       7.16 minutes
	system time =       1.40 seconds =       0.02 minutes
	total time  =        500 seconds =       8.33 minutes
Total time:
	user time   =    1708.24 seconds =      28.47 minutes
	system time =      62.58 seconds =       1.04 minutes
	total time  =       2282 seconds =      38.03 minutes

  //>>>>>>>>>>>>>>>>>>>>>>>>>>>>>>>>>>>//
  //    Loading displacement 5 of 7    //
  //<<<<<<<<<<<<<<<<<<<<<<<<<<<<<<<<<<<//

*** tstart() called on c2-18.compute.lan
*** at Tue Feb  2 15:17:49 2021

   => Loading Basis Set <=

    Name: AUG-CC-PVTZ
    Role: ORBITAL
    Keyword: BASIS
    atoms 1-3 entry S          line   906 file /apps/gb/PSI4/1.4.0/share/psi4/basis/aug-cc-pvtz.gbs 


         ---------------------------------------------------------
                                   SCF
               by Justin Turney, Rob Parrish, Andy Simmonett
                          and Daniel G. A. Smith
                              UKS Reference
                        1 Threads,   9536 MiB Core
         ---------------------------------------------------------

  ==> Geometry <==

    Molecular point group: cs
    Full point group: Cs

    Geometry (in Angstrom), charge = -2, multiplicity = 3:

       Center              X                  Y                   Z               Mass       
    ------------   -----------------  -----------------  -----------------  -----------------
         S            0.606217782649     0.317033053067     0.000000000000    31.972071174400
         S            0.606137199538    -1.683564576614     0.000000000000    31.972071174400
         S           -1.212354982187     1.366531523547     0.000000000000    31.972071174400

  Running in cs symmetry.

  Rotational constants: A =      0.75370  B =      0.08359  C =      0.07525 [cm^-1]
  Rotational constants: A =  22595.43469  B =   2506.06514  C =   2255.86644 [MHz]
  Nuclear repulsion =  170.382552772002498

  Charge       = -2
  Multiplicity = 3
  Electrons    = 50
  Nalpha       = 26
  Nbeta        = 24

  ==> Algorithm <==

  SCF Algorithm Type is DF.
  DIIS enabled.
  MOM disabled.
  Fractional occupation disabled.
  Guess Type is SAD.
  Energy threshold   = 1.00e-08
  Density threshold  = 1.00e-08
  Integral threshold = 0.00e+00

  ==> Primary Basis <==

  Basis Set: AUG-CC-PVTZ
    Blend: AUG-CC-PVTZ
    Number of shells: 48
    Number of basis function: 150
    Number of Cartesian functions: 177
    Spherical Harmonics?: true
    Max angular momentum: 3

  ==> DFT Potential <==

   => Composite Functional: WB97M-V <= 

    wB97M-V Hyb-GGA Exchange-Correlation Functional

    N. Mardirossian and M. Head-Gordon, J. Chem. Phys. 144, 214110 (2016)

    Deriv               =              1
    GGA                 =           TRUE
    Meta                =           TRUE

    Exchange Hybrid     =           TRUE
    MP2 Hybrid          =          FALSE

   => Exchange-Correlation Functionals <=

    1.0000   wB97M-V exchange-correlation functional

   => Exact (HF) Exchange <=

    0.8500            HF,LR [omega = 0.3000]
    0.1500               HF 

   => VV10 Non-Local Parameters <=

    VV10 B              =     6.0000E+00
    VV10 C              =     1.0000E-02

   => Molecular Quadrature <=

    Radial Scheme          =       TREUTLER
    Pruning Scheme         =           NONE
    Nuclear Scheme         =       TREUTLER

    BS radius alpha        =              1
    Pruning alpha          =              1
    Radial Points          =             99
    Spherical Points       =            590
    Total Points           =         169934
    Total Blocks           =           1391
    Max Points             =            256
    Max Functions          =            150
    Weights Tolerance      =       1.00E-15

   => Loading Basis Set <=

    Name: (AUG-CC-PVTZ AUX)
    Role: JKFIT
    Keyword: DF_BASIS_SCF
    atoms 1-3 entry S          line   730 file /apps/gb/PSI4/1.4.0/share/psi4/basis/aug-cc-pvtz-jkfit.gbs 

  ==> Pre-Iterations <==

   -------------------------------------------------------
    Irrep   Nso     Nmo     Nalpha   Nbeta   Ndocc  Nsocc
   -------------------------------------------------------
     A'        99      99       0       0       0       0
     A"        51      51       0       0       0       0
   -------------------------------------------------------
    Total     150     150      26      24      24       2
   -------------------------------------------------------

  ==> Integral Setup <==

  ==> DiskDFJK: Density-Fitted J/K Matrices <==

    J tasked:                  Yes
    K tasked:                  Yes
    wK tasked:                 Yes
    Omega:               3.000E-01
    OpenMP threads:              1
    Integrals threads:           1
    Memory [MiB]:             5488
    Algorithm:                Core
    Integral Cache:           NONE
    Schwarz Cutoff:          1E-12
    Fitting Condition:       1E-10

   => Auxiliary Basis Set <=

  Basis Set: (AUG-CC-PVTZ AUX)
    Blend: AUG-CC-PVTZ-JKFIT
    Number of shells: 126
    Number of basis function: 438
    Number of Cartesian functions: 540
    Spherical Harmonics?: true
    Max angular momentum: 4

  Cached 100.0% of DFT collocation blocks in 1.625 [GiB].

  Minimum eigenvalue in the overlap matrix is 2.2943965318E-04.
  Using Symmetric Orthogonalization.

  SCF Guess: Superposition of Atomic Densities via on-the-fly atomic UHF.

  ==> Iterations <==

                           Total Energy        Delta E     RMS |[F,P]|

   @DF-UKS iter SAD: -1194.00608498421479   -1.19401e+03   0.00000e+00 
   @DF-UKS iter   1: -1194.24025047350460   -2.34165e-01   5.04842e-03 DIIS
   @DF-UKS iter   2: -1194.20630858629988    3.39419e-02   5.66580e-03 DIIS
   @DF-UKS iter   3: -1194.46503864754618   -2.58730e-01   8.47895e-04 DIIS
   @DF-UKS iter   4: -1194.47142043108852   -6.38178e-03   4.91455e-04 DIIS
   @DF-UKS iter   5: -1194.47392669708620   -2.50627e-03   1.64890e-04 DIIS
   @DF-UKS iter   6: -1194.47465869001553   -7.31993e-04   8.24656e-05 DIIS
   @DF-UKS iter   7: -1194.47507503301858   -4.16343e-04   4.94721e-05 DIIS
   @DF-UKS iter   8: -1194.47524035914921   -1.65326e-04   2.94840e-05 DIIS
   @DF-UKS iter   9: -1194.47530837561681   -6.80165e-05   1.58927e-05 DIIS
   @DF-UKS iter  10: -1194.47532697230395   -1.85967e-05   6.55297e-06 DIIS
   @DF-UKS iter  11: -1194.47533181361723   -4.84131e-06   2.16048e-06 DIIS
   @DF-UKS iter  12: -1194.47533236011031   -5.46493e-07   9.61351e-07 DIIS
   @DF-UKS iter  13: -1194.47533247185447   -1.11744e-07   4.96682e-07 DIIS
   @DF-UKS iter  14: -1194.47533250251013   -3.06557e-08   3.86058e-07 DIIS
   @DF-UKS iter  15: -1194.47533252814355   -2.56334e-08   3.04345e-07 DIIS
   @DF-UKS iter  16: -1194.47533255756616   -2.94226e-08   2.32583e-07 DIIS
   @DF-UKS iter  17: -1194.47533257801729   -2.04511e-08   1.68633e-07 DIIS
   @DF-UKS iter  18: -1194.47533258723934   -9.22205e-09   1.06109e-07 DIIS
   @DF-UKS iter  19: -1194.47533258954263   -2.30330e-09   4.74303e-08 DIIS
   @DF-UKS iter  20: -1194.47533258984413   -3.01497e-10   2.38988e-08 DIIS
   @DF-UKS iter  21: -1194.47533258991643   -7.23048e-11   1.39260e-08 DIIS
   @DF-UKS iter  22: -1194.47533258993190   -1.54614e-11   6.66812e-09 DIIS
  Energy and wave function converged.


  ==> Post-Iterations <==

   @Spin Contamination Metric:   7.865959494E-03
   @S^2 Expected:                2.000000000E+00
   @S^2 Observed:                2.007865959E+00
   @S   Expected:                1.000000000E+00
   @S   Observed:                1.000000000E+00

    Orbital Energies [Eh]
    ---------------------

    Alpha Occupied:                                                       

       1Ap   -88.956218     2Ap   -88.881431     3Ap   -88.872153  
       4Ap    -7.862295     5Ap    -7.793802     6Ap    -7.783091  
       7Ap    -5.771363     1App   -5.771354     8Ap    -5.767487  
       9Ap    -5.704449     2App   -5.701624    10Ap    -5.696872  
      11Ap    -5.694343     3App   -5.690556    12Ap    -5.686131  
      13Ap    -0.615892    14Ap    -0.488262    15Ap    -0.372599  
      16Ap    -0.168127     4App   -0.146493    17Ap    -0.145399  
       5App   -0.040624    18Ap    -0.019584    19Ap    -0.012163  
       6App    0.026858    20Ap     0.166266  

    Alpha Virtual:                                                        

      21Ap     0.242356    22Ap     0.290829    23Ap     0.293049  
       7App    0.304971    24Ap     0.308862     8App    0.318705  
       9App    0.321157    25Ap     0.324552    26Ap     0.327456  
      27Ap     0.361763    28Ap     0.368428    29Ap     0.410461  
      30Ap     0.443086    10App    0.486972    31Ap     0.501461  
      11App    0.512797    32Ap     0.530848    33Ap     0.541347  
      34Ap     0.550172    35Ap     0.567335    12App    0.575866  
      13App    0.580565    36Ap     0.591205    14App    0.605381  
      37Ap     0.609380    38Ap     0.632968    15App    0.655955  
      39Ap     0.677095    16App    0.751908    40Ap     0.779292  
      41Ap     0.820320    17App    0.823955    42Ap     0.839365  
      43Ap     0.843269    44Ap     0.850843    18App    0.862969  
      19App    0.867236    45Ap     0.871098    46Ap     0.875476  
      20App    0.880977    47Ap     0.908801    48Ap     0.943822  
      21App    0.948963    49Ap     0.955573    22App    0.969760  
      50Ap     0.974100    51Ap     0.983550    52Ap     1.007054  
      23App    1.010454    24App    1.047827    53Ap     1.048638  
      25App    1.066171    54Ap     1.105709    26App    1.109778  
      55Ap     1.110824    27App    1.127945    56Ap     1.145171  
      57Ap     1.166950    58Ap     1.172941    59Ap     1.254851  
      28App    1.261146    29App    1.298358    60Ap     1.323575  
      30App    1.358711    61Ap     1.362510    31App    1.430048  
      62Ap     1.432932    63Ap     1.446561    64Ap     1.474917  
      65Ap     1.499895    32App    1.517671    33App    1.527051  
      66Ap     1.622128    67Ap     1.634870    68Ap     1.693944  
      69Ap     1.798474    70Ap     2.105146    34App    2.118505  
      35App    2.145141    71Ap     2.153313    36App    2.182278  
      72Ap     2.186909    37App    2.196239    73Ap     2.199349  
      74Ap     2.231271    38App    2.262690    75Ap     2.283499  
      76Ap     2.303896    77Ap     2.319201    39App    2.324407  
      40App    2.334288    78Ap     2.334571    41App    2.356980  
      79Ap     2.363647    42App    2.386785    80Ap     2.399414  
      43App    2.409119    81Ap     2.446559    82Ap     2.467330  
      44App    2.481543    83Ap     2.488281    45App    2.495117  
      84Ap     2.503101    46App    2.567256    85Ap     2.576830  
      47App    2.580605    86Ap     2.589810    87Ap     2.610644  
      48App    2.613869    49App    2.659867    88Ap     2.699654  
      89Ap     2.719430    90Ap     2.764051    91Ap     2.787251  
      92Ap     2.821143    50App    2.853461    93Ap     2.877600  
      51App    2.915856    94Ap     3.029845    95Ap     3.913470  
      96Ap     4.017851    97Ap     5.092204    98Ap     5.501335  
      99Ap     5.956363  

    Beta Occupied:                                                        

       1Ap   -88.952364     2Ap   -88.879416     3Ap   -88.870045  
       4Ap    -7.858150     5Ap    -7.791704     6Ap    -7.780873  
       7Ap    -5.768852     8Ap    -5.763714     1App   -5.759595  
       9Ap    -5.702566    10Ap    -5.695252     2App   -5.695195  
      11Ap    -5.691853    12Ap    -5.684459     3App   -5.684450  
      13Ap    -0.600890    14Ap    -0.475791    15Ap    -0.348217  
      16Ap    -0.154739    17Ap    -0.131916     4App   -0.110336  
      18Ap    -0.009294    19Ap    -0.004470     5App    0.003159  

    Beta Virtual:                                                         

       6App    0.248327    20Ap     0.258976    21Ap     0.267822  
      22Ap     0.300638     7App    0.310673    23Ap     0.313304  
      24Ap     0.322076     8App    0.323263    25Ap     0.341453  
       9App    0.341953    26Ap     0.364734    27Ap     0.372747  
      28Ap     0.403408    29Ap     0.443991    30Ap     0.463226  
      10App    0.492215    31Ap     0.511511    11App    0.522382  
      32Ap     0.553669    33Ap     0.562217    34Ap     0.570050  
      35Ap     0.586695    12App    0.587415    13App    0.589224  
      36Ap     0.618921    14App    0.623540    37Ap     0.631630  
      38Ap     0.651522    15App    0.669480    39Ap     0.696876  
      16App    0.762212    40Ap     0.785955    17App    0.833301  
      41Ap     0.838806    42Ap     0.849833    43Ap     0.855949  
      44Ap     0.868596    18App    0.875462    19App    0.879453  
      45Ap     0.881200    20App    0.893799    46Ap     0.896428  
      47Ap     0.931896    48Ap     0.951719    21App    0.960308  
      49Ap     0.966925    22App    0.978005    50Ap     0.986131  
      51Ap     1.000873    52Ap     1.019509    23App    1.024623  
[...]
    Number of basis function: 438
    Number of Cartesian functions: 540
    Spherical Harmonics?: true
    Max angular momentum: 4

  Cached 100.0% of DFT collocation blocks in 1.629 [GiB].

  Minimum eigenvalue in the overlap matrix is 2.4825987994E-04.
  Using Symmetric Orthogonalization.

  SCF Guess: Superposition of Atomic Densities via on-the-fly atomic UHF.

  ==> Iterations <==

                           Total Energy        Delta E     RMS |[F,P]|

   @DF-UKS iter SAD: -1194.00372547948109   -1.19400e+03   0.00000e+00 
   @DF-UKS iter   1: -1194.23566321589396   -2.31938e-01   5.04528e-03 DIIS
   @DF-UKS iter   2: -1194.23328714793843    2.37607e-03   5.49719e-03 DIIS
   @DF-UKS iter   3: -1194.47042704925207   -2.37140e-01   4.93252e-04 DIIS
   @DF-UKS iter   4: -1194.47380546517184   -3.37842e-03   3.29268e-04 DIIS
   @DF-UKS iter   5: -1194.47531530720198   -1.50984e-03   1.52625e-04 DIIS
   @DF-UKS iter   6: -1194.47598761383006   -6.72307e-04   8.68891e-05 DIIS
   @DF-UKS iter   7: -1194.47645942305962   -4.71809e-04   4.13868e-05 DIIS
   @DF-UKS iter   8: -1194.47664186415886   -1.82441e-04   1.89626e-05 DIIS
   @DF-UKS iter   9: -1194.47667316097431   -3.12968e-05   7.51032e-06 DIIS
   @DF-UKS iter  10: -1194.47667841786119   -5.25689e-06   3.73961e-06 DIIS
   @DF-UKS iter  11: -1194.47667896052894   -5.42668e-07   1.79768e-06 DIIS
   @DF-UKS iter  12: -1194.47667912283396   -1.62305e-07   5.92181e-07 DIIS
   @DF-UKS iter  13: -1194.47667915361080   -3.07768e-08   1.92025e-07 DIIS
   @DF-UKS iter  14: -1194.47667915682700   -3.21620e-09   8.50604e-08 DIIS
   @DF-UKS iter  15: -1194.47667915751208   -6.85077e-10   3.52180e-08 DIIS
   @DF-UKS iter  16: -1194.47667915766806   -1.55978e-10   2.21218e-08 DIIS
   @DF-UKS iter  17: -1194.47667915771467   -4.66116e-11   1.60474e-08 DIIS
   @DF-UKS iter  18: -1194.47667915774150   -2.68301e-11   1.28366e-08 DIIS
   @DF-UKS iter  19: -1194.47667915777402   -3.25144e-11   1.02869e-08 DIIS
   @DF-UKS iter  20: -1194.47667915781858   -4.45652e-11   7.02247e-09 DIIS
   @DF-UKS iter  21: -1194.47667915783722   -1.86446e-11   4.51598e-09 DIIS
   @DF-UKS iter  22: -1194.47667915784700   -9.77707e-12   2.34968e-09 DIIS
   @DF-UKS iter  23: -1194.47667915784700    0.00000e+00   1.46264e-09 DIIS
   @DF-UKS iter  24: -1194.47667915784541    1.59162e-12   4.88827e-10 DIIS
   @DF-UKS iter  25: -1194.47667915784314    2.27374e-12   2.30122e-10 DIIS
   @DF-UKS iter  26: -1194.47667915784291    2.27374e-13   1.25290e-10 DIIS
   @DF-UKS iter  27: -1194.47667915784587   -2.95586e-12   6.21481e-11 DIIS
  Energy and wave function converged.


  ==> Post-Iterations <==

   @Spin Contamination Metric:   7.072115795E-03
   @S^2 Expected:                2.000000000E+00
   @S^2 Observed:                2.007072116E+00
   @S   Expected:                1.000000000E+00
   @S   Observed:                1.000000000E+00

    Orbital Energies [Eh]
    ---------------------

    Alpha Occupied:                                                       

       1Ap   -88.965597     2Ap   -88.882101     3Ap   -88.882017  
       4Ap    -7.871142     5Ap    -7.793645     6Ap    -7.793549  
       7Ap    -5.780136     1App   -5.780133     8Ap    -5.776467  
       9Ap    -5.704614    10Ap    -5.704524     2App   -5.701304  
       3App   -5.701203    11Ap    -5.696602    12Ap    -5.696506  
      13Ap    -0.620285    14Ap    -0.492459    15Ap    -0.378984  
      16Ap    -0.170928    17Ap    -0.151780     4App   -0.151258  
       5App   -0.044619    18Ap    -0.022355    19Ap    -0.019263  
       6App    0.020584    20Ap     0.169293  

    Alpha Virtual:                                                        

      21Ap     0.241548    22Ap     0.286913    23Ap     0.293269  
      24Ap     0.302634     7App    0.303788     8App    0.315402  
       9App    0.315837    25Ap     0.319923    26Ap     0.323621  
      27Ap     0.353024    28Ap     0.360308    29Ap     0.401623  
      30Ap     0.431179    10App    0.486386    31Ap     0.501930  
      11App    0.508705    32Ap     0.524219    33Ap     0.524263  
      34Ap     0.546813    35Ap     0.557660    12App    0.566639  
      13App    0.583012    36Ap     0.587662    37Ap     0.591340  
      14App    0.597745    38Ap     0.629103    15App    0.646156  
      39Ap     0.665039    16App    0.748924    40Ap     0.780557  
      41Ap     0.813477    17App    0.822809    42Ap     0.831257  
      43Ap     0.839118    44Ap     0.839967    18App    0.857138  
      19App    0.857343    45Ap     0.862586    20App    0.868273  
      46Ap     0.870951    47Ap     0.888734    21App    0.944074  
      48Ap     0.946773    49Ap     0.946950    22App    0.967658  
      50Ap     0.971343    51Ap     0.979383    52Ap     0.997951  
      23App    1.011018    53Ap     1.048096    24App    1.048476  
      25App    1.053180    54Ap     1.104365    55Ap     1.107732  
      26App    1.112872    27App    1.116521    56Ap     1.127036  
      57Ap     1.157742    58Ap     1.179116    59Ap     1.260360  
      28App    1.276797    29App    1.294055    60Ap     1.323603  
      61Ap     1.344750    30App    1.346023    31App    1.424447  
      62Ap     1.435799    63Ap     1.439539    64Ap     1.462296  
      65Ap     1.497915    32App    1.506030    33App    1.509109  
      66Ap     1.607441    67Ap     1.609452    68Ap     1.689416  
      69Ap     1.786396    70Ap     2.102240    34App    2.116422  
      35App    2.139651    71Ap     2.152975    72Ap     2.179845  
      36App    2.182946    37App    2.190562    73Ap     2.201555  
      74Ap     2.208858    38App    2.259840    75Ap     2.270043  
      76Ap     2.302496    39App    2.319034    77Ap     2.319982  
      40App    2.322111    78Ap     2.323765    41App    2.340461  
      79Ap     2.357975    42App    2.387963    80Ap     2.394447  
      43App    2.403720    81Ap     2.451417    82Ap     2.457433  
      44App    2.477842    45App    2.490498    83Ap     2.491858  
      84Ap     2.505960    46App    2.567180    85Ap     2.577291  
      47App    2.587387    48App    2.592126    86Ap     2.601086  
      87Ap     2.607343    49App    2.644971    88Ap     2.689437  
      89Ap     2.740097    90Ap     2.742850    91Ap     2.772379  
      92Ap     2.818989    93Ap     2.876651    50App    2.876872  
      51App    2.878825    94Ap     2.993672    95Ap     3.944449  
      96Ap     3.990152    97Ap     5.020861    98Ap     5.506722  
      99Ap     5.941850  

    Beta Occupied:                                                        

       1Ap   -88.961976     2Ap   -88.880155     3Ap   -88.880072  
       4Ap    -7.867260     5Ap    -7.791615     6Ap    -7.791518  
       7Ap    -5.777786     8Ap    -5.773260     1App   -5.768661  
       9Ap    -5.702793    10Ap    -5.702699     2App   -5.695081  
      11Ap    -5.695074     3App   -5.694985    12Ap    -5.694978  
      13Ap    -0.606193    14Ap    -0.481089    15Ap    -0.355636  
      16Ap    -0.158935    17Ap    -0.139584     4App   -0.115604  
      18Ap    -0.014945    19Ap    -0.010677     5App   -0.001222  

    Beta Virtual:                                                         

       6App    0.242573    20Ap     0.258073    21Ap     0.264811  
      22Ap     0.296336     7App    0.309417    23Ap     0.315367  
      24Ap     0.318853     8App    0.321093    25Ap     0.338221  
       9App    0.339709    26Ap     0.365784    27Ap     0.370157  
      28Ap     0.394394    29Ap     0.442423    30Ap     0.458358  
      10App    0.491646    31Ap     0.516038    11App    0.518445  
      32Ap     0.552776    33Ap     0.559484    34Ap     0.561723  
      35Ap     0.577116    12App    0.580784    13App    0.590765  
      14App    0.619313    36Ap     0.621343    37Ap     0.623903  
      38Ap     0.650389    15App    0.661762    39Ap     0.689984  
      16App    0.759309    40Ap     0.787870    17App    0.832650  
      41Ap     0.833120    42Ap     0.852091    43Ap     0.853531  
      44Ap     0.860479    18App    0.870215    19App    0.870667  
      45Ap     0.872518    20App    0.883228    46Ap     0.893108  
      47Ap     0.918018    48Ap     0.954179    21App    0.954984  
      49Ap     0.960116    22App    0.976250    50Ap     0.984074  
      51Ap     0.997302    52Ap     1.010475    23App    1.026810  
      24App    1.060700    53Ap     1.066625    25App    1.074650  
      54Ap     1.113067    55Ap     1.113371    26App    1.116549  
      27App    1.122644    56Ap     1.149918    57Ap     1.174610  
      58Ap     1.186241    59Ap     1.265846    28App    1.282930  
      29App    1.303672    60Ap     1.332020    61Ap     1.354062  
      30App    1.355658    31App    1.438574    62Ap     1.444923  
      63Ap     1.458543    64Ap     1.480756    65Ap     1.515268  
      32App    1.519416    33App    1.528595    66Ap     1.623714  
      67Ap     1.631602    68Ap     1.716242    69Ap     1.820284  
      70Ap     2.125235    34App    2.140724    35App    2.155669  
      71Ap     2.170683    72Ap     2.198289    36App    2.200365  
      37App    2.207803    73Ap     2.214849    74Ap     2.217449  
      75Ap     2.274177    38App    2.287179    76Ap     2.310762  
      77Ap     2.328427    78Ap     2.336323    39App    2.336621  
      40App    2.346837    41App    2.354381    79Ap     2.367569  
      80Ap     2.407572    42App    2.409301    43App    2.430733  
      81Ap     2.459956    82Ap     2.466853    44App    2.493140  
      83Ap     2.504577    45App    2.505829    84Ap     2.518948  
      46App    2.578934    85Ap     2.589094    47App    2.606260  
      48App    2.613950    86Ap     2.616093    87Ap     2.616391  
      49App    2.665327    88Ap     2.705792    89Ap     2.754090  
      90Ap     2.757984    91Ap     2.781525    92Ap     2.829705  
      93Ap     2.881560    50App    2.894634    51App    2.902613  
      94Ap     2.999701    95Ap     3.955124    96Ap     3.998748  
      97Ap     5.036099    98Ap     5.522710    99Ap     5.965423  

    Final Occupation by Irrep:
             Ap   App 
    DOCC [    19,    5 ]
    SOCC [     1,    1 ]

  @DF-UKS Final Energy: -1194.47667915784587

   => Energetics <=

    Nuclear Repulsion Energy =            171.2948579422348416
    One-Electron Energy =               -2007.1768662323916033
    Two-Electron Energy =                 700.6729527471585470
    DFT Exchange-Correlation Energy =     -59.4700742887665328
    Empirical Dispersion Energy =           0.0000000000000000
    VV10 Nonlocal Energy =                  0.2024506739189418
    Total Energy =                      -1194.4766791578456377

  UHF NO Occupations:
  HONO-2 :    5App 1.9984127
  HONO-1 :    6App 1.0000000
  HONO-0 :   20 Ap 1.0000000
  LUNO+0 :    7App 0.0015873
  LUNO+1 :    8App 0.0007380
  LUNO+2 :   21 Ap 0.0006431
  LUNO+3 :   22 Ap 0.0002594


Computation Completed


Properties will be evaluated at   0.000000,   0.000000,   0.000000 [a0]

Properties computed using the SCF density matrix

  Nuclear Dipole Moment: [e a0]
     X:    -0.0000      Y:     0.0000      Z:     0.0000

  Electronic Dipole Moment: [e a0]
     X:    -0.0082      Y:    -0.0104      Z:     0.0000

  Dipole Moment: [e a0]
     X:    -0.0082      Y:    -0.0104      Z:     0.0000     Total:     0.0133

  Dipole Moment: [D]
     X:    -0.0209      Y:    -0.0265      Z:     0.0000     Total:     0.0337


*** tstop() called on c2-18.compute.lan at Tue Feb  2 22:21:15 2021
Module time:
	user time   =     519.48 seconds =       8.66 minutes
	system time =       1.78 seconds =       0.03 minutes
	total time  =        522 seconds =       8.70 minutes
Total time:
	user time   =   26996.98 seconds =     449.95 minutes
	system time =     170.48 seconds =       2.84 minutes
	total time  =      27688 seconds =     461.47 minutes

         ----------------------------------------------------------
                                   FINDIF
                     R. A. King and Jonathon Misiewicz
         ---------------------------------------------------------

  Computing second-derivative from energies using projected, 
  symmetry-adapted, cartesian coordinates.

  13 energies passed in, including the reference geometry.
    Using 3-point formula.
    Energy without displacement: -1194.4766793056
    Check energies below for precision!
    0: -1        :     -1194.4766792251
    0: 1         :     -1194.4766792263
    1: -1        :     -1194.4766792161
    1: 1         :     -1194.4766792166
    2: -1        :     -1194.4766792810
    2: 1         :     -1194.4766792832
    0: 1, 1: 1   :     -1194.4766791581
    0: -1, 1: -1 :     -1194.4766791556
    0: 1, 2: 1   :     -1194.4766791487
    0: -1, 2: -1 :     -1194.4766791463
    1: 1, 2: 1   :     -1194.4766791594
    1: -1, 2: -1 :     -1194.4766791578

-------------------------------------------------------------


  ==> Harmonic Vibrational Analysis <==

  non-mass-weighted Hessian:       Symmetric? True   Hermitian? True   Lin Dep Dim?  6 (0)
  projection of translations (True) and rotations (True) removed 6 degrees of freedom (6)
  total projector:                 Symmetric? True   Hermitian? True   Lin Dep Dim?  6 (6)
  mass-weighted Hessian:           Symmetric? True   Hermitian? True   Lin Dep Dim?  6 (0)
  pre-proj  low-frequency mode:    0.0000i [cm^-1]
  pre-proj  low-frequency mode:    0.0000i [cm^-1]
  pre-proj  low-frequency mode:    0.0000i [cm^-1]
  pre-proj  low-frequency mode:    0.0000  [cm^-1]
  pre-proj  low-frequency mode:    0.0000  [cm^-1]
  pre-proj  low-frequency mode:    0.0000  [cm^-1]
  pre-proj  all modes:['0.0000i' '0.0000i' '0.0000i' '0.0000' '0.0000' '0.0000' '127.3760'
 '434.1793' '450.0996']
  projected mass-weighted Hessian: Symmetric? True   Hermitian? True   Lin Dep Dim?  6 (6)
  post-proj low-frequency mode:    0.0000i [cm^-1] (TR)
  post-proj low-frequency mode:    0.0000i [cm^-1] (TR)
  post-proj low-frequency mode:    0.0000i [cm^-1] (TR)
  post-proj low-frequency mode:    0.0000i [cm^-1] (TR)
  post-proj low-frequency mode:    0.0000  [cm^-1] (TR)
  post-proj low-frequency mode:    0.0000  [cm^-1] (TR)
  post-proj  all modes:['0.0000i' '0.0000i' '0.0000i' '0.0000i' '0.0000' '0.0000' '127.3760'
 '434.1793' '450.0996']

  Vibration                       7                   8                   9           
  Freq [cm^-1]                 127.3760            434.1793            450.0996       
  Irrep                           Ap                  Ap                  Ap          
  Reduced mass [u]             31.9721             31.9721             31.9721        
  Force const [mDyne/A]         0.3056              3.5511              3.8163        
  Turning point v=0 [a0]        0.1719              0.0931              0.0915        
  RMS dev v=0 [a0 u^1/2]        0.6875              0.3724              0.3657        
  Char temp [K]                183.2657            624.6873            647.5931       
  ----------------------------------------------------------------------------------
      1   S               -0.30 -0.20  0.00    0.59  0.43 -0.00   -0.45  0.62  0.00   
      2   S                0.49 -0.43 -0.00   -0.14 -0.48 -0.00    0.01 -0.43  0.00   
      3   S               -0.19  0.63 -0.00   -0.45  0.06 -0.00    0.44 -0.19  0.00   

  ==> Thermochemistry Components <==

  Entropy, S
    Electronic S            2.183 [cal/(mol K)]        9.134 [J/(mol K)]       0.00347910 [mEh/K] (multiplicity = 3)
    Translational S        39.594 [cal/(mol K)]      165.660 [J/(mol K)]       0.06309659 [mEh/K] (mol. weight = 95.9162 [u], P = 101325.00 [Pa])
    Rotational S           25.397 [cal/(mol K)]      106.260 [J/(mol K)]       0.04047212 [mEh/K] (symmetry no. = 1)
    Vibrational S           4.626 [cal/(mol K)]       19.355 [J/(mol K)]       0.00737179 [mEh/K]
  Total S                  71.799 [cal/(mol K)]      300.409 [J/(mol K)]       0.11441959 [mEh/K]
  Correction S              0.000 [cal/(mol K)]        0.000 [J/(mol K)]       0.00000000 [mEh/K]

  Constant volume heat capacity, Cv
    Electronic Cv           0.000 [cal/(mol K)]        0.000 [J/(mol K)]       0.00000000 [mEh/K]
    Translational Cv        2.981 [cal/(mol K)]       12.472 [J/(mol K)]       0.00475022 [mEh/K]
    Rotational Cv           2.981 [cal/(mol K)]       12.472 [J/(mol K)]       0.00475022 [mEh/K]
    Vibrational Cv          4.682 [cal/(mol K)]       19.590 [J/(mol K)]       0.00746157 [mEh/K]
  Total Cv                 10.644 [cal/(mol K)]       44.534 [J/(mol K)]       0.01696200 [mEh/K]
  Correction Cv             0.000 [cal/(mol K)]        0.000 [J/(mol K)]       0.00000000 [mEh/K]

  Constant pressure heat capacity, Cp
    Electronic Cp           0.000 [cal/(mol K)]        0.000 [J/(mol K)]       0.00000000 [mEh/K]
    Translational Cp        4.968 [cal/(mol K)]       20.786 [J/(mol K)]       0.00791703 [mEh/K]
    Rotational Cp           2.981 [cal/(mol K)]       12.472 [J/(mol K)]       0.00475022 [mEh/K]
    Vibrational Cp          4.682 [cal/(mol K)]       19.590 [J/(mol K)]       0.00746157 [mEh/K]
  Total Cp                 12.631 [cal/(mol K)]       52.848 [J/(mol K)]       0.02012881 [mEh/K]
  Correction Cp             0.000 [cal/(mol K)]        0.000 [J/(mol K)]       0.00000000 [mEh/K]

  ==> Thermochemistry Energy Analysis <==

  Raw electronic energy, E0
  Total E0, Electronic energy at well bottom at 0 [K]                -1194.47667931 [Eh]

  Zero-point energy, ZPE_vib = Sum_i nu_i / 2
    Electronic ZPE          0.000 [kcal/mol]        0.000 [kJ/mol]       0.00000000 [Eh]
    Translational ZPE       0.000 [kcal/mol]        0.000 [kJ/mol]       0.00000000 [Eh]
    Rotational ZPE          0.000 [kcal/mol]        0.000 [kJ/mol]       0.00000000 [Eh]
    Vibrational ZPE         1.446 [kcal/mol]        6.051 [kJ/mol]       0.00230472 [Eh]         505.827 [cm^-1]
  Correction ZPE            1.446 [kcal/mol]        6.051 [kJ/mol]       0.00230472 [Eh]         505.827 [cm^-1]
  Total ZPE, Electronic energy at 0 [K]                              -1194.47437459 [Eh]

  Thermal Energy, E (includes ZPE)
    Electronic E            0.000 [kcal/mol]        0.000 [kJ/mol]       0.00000000 [Eh]
    Translational E         0.889 [kcal/mol]        3.718 [kJ/mol]       0.00141628 [Eh]
    Rotational E            0.889 [kcal/mol]        3.718 [kJ/mol]       0.00141628 [Eh]
    Vibrational E           2.215 [kcal/mol]        9.267 [kJ/mol]       0.00352956 [Eh]
  Correction E              3.992 [kcal/mol]       16.704 [kJ/mol]       0.00636211 [Eh]
  Total E, Electronic energy at  298.15 [K]                          -1194.47031719 [Eh]

  Enthalpy, H_trans = E_trans + k_B * T
    Electronic H            0.000 [kcal/mol]        0.000 [kJ/mol]       0.00000000 [Eh]
    Translational H         1.481 [kcal/mol]        6.197 [kJ/mol]       0.00236046 [Eh]
    Rotational H            0.889 [kcal/mol]        3.718 [kJ/mol]       0.00141628 [Eh]
    Vibrational H           2.215 [kcal/mol]        9.267 [kJ/mol]       0.00352956 [Eh]
  Correction H              4.585 [kcal/mol]       19.183 [kJ/mol]       0.00730630 [Eh]
  Total H, Enthalpy at  298.15 [K]                                   -1194.46937301 [Eh]

  Gibbs free energy, G = H - T * S
    Electronic G           -0.651 [kcal/mol]       -2.723 [kJ/mol]      -0.00103729 [Eh]
    Translational G       -10.324 [kcal/mol]      -43.194 [kJ/mol]      -0.01645179 [Eh]
    Rotational G           -6.683 [kcal/mol]      -27.963 [kJ/mol]      -0.01065049 [Eh]
    Vibrational G           0.836 [kcal/mol]        3.496 [kJ/mol]       0.00133166 [Eh]
  Correction G            -16.822 [kcal/mol]      -70.384 [kJ/mol]      -0.02680790 [Eh]
  Total G, Free enthalpy at  298.15 [K]                              -1194.50348721 [Eh]

    Psi4 stopped on: Tuesday, 02 February 2021 10:21PM
    Psi4 wall time for execution: 7:41:29.04

*** Psi4 exiting successfully. Buy a developer a beer!
