
    -----------------------------------------------------------------------
          Psi4: An Open-Source Ab Initio Electronic Structure Package
                               Psi4 1.4a2.dev191 

                         Git: Rev {master} 0ab5346 


    R. M. Parrish, L. A. Burns, D. G. A. Smith, A. C. Simmonett,
    A. E. DePrince III, E. G. Hohenstein, U. Bozkaya, A. Yu. Sokolov,
    R. Di Remigio, R. M. Richard, J. F. Gonthier, A. M. James,
    H. R. McAlexander, A. Kumar, M. Saitow, X. Wang, B. P. Pritchard,
    P. Verma, H. F. Schaefer III, K. Patkowski, R. A. King, E. F. Valeev,
    F. A. Evangelista, J. M. Turney, T. D. Crawford, and C. D. Sherrill,
    J. Chem. Theory Comput. 13(7) pp 3185--3197 (2017).
    (doi: 10.1021/acs.jctc.7b00174)


                         Additional Contributions by
    P. Kraus, H. Kruse, M. H. Lechner, M. C. Schieber, R. A. Shaw,
    A. Alenaizan, R. Galvelis, Z. L. Glick, S. Lehtola, and J. P. Misiewicz

    -----------------------------------------------------------------------


    Psi4 started on: Friday, 29 January 2021 10:59AM

    Process ID: 5907
    Host:       c2-5.compute.lan
    PSIDATADIR: /apps/gb/PSI4/1.4.0/share/psi4
    Memory:     500.0 MiB
    Threads:    1
    
  ==> Input File <==

--------------------------------------------------------------------------
memory 10 GB

molecule  {
-2 1
S
S 1 R1
S 1 R2 2 A1
R1 = 1.5
R2 = 1.5
A1 = 120.0
}

set {
reference uks
basis aug-cc-pvtz
}

optimize('lrc-wpbeh')
--------------------------------------------------------------------------

  Memory set to   9.313 GiB by Python driver.
gradient() will perform analytic gradient computation.

*** tstart() called on c2-5.compute.lan
*** at Fri Jan 29 10:59:42 2021

   => Loading Basis Set <=

    Name: AUG-CC-PVTZ
    Role: ORBITAL
    Keyword: BASIS
    atoms 1-3 entry S          line   906 file /apps/gb/PSI4/1.4.0/share/psi4/basis/aug-cc-pvtz.gbs 


         ---------------------------------------------------------
                                   SCF
               by Justin Turney, Rob Parrish, Andy Simmonett
                          and Daniel G. A. Smith
                              UKS Reference
                        1 Threads,   9536 MiB Core
         ---------------------------------------------------------

  ==> Geometry <==

    Molecular point group: c2v
    Full point group: C2v

    Geometry (in Angstrom), charge = -2, multiplicity = 1:

       Center              X                  Y                   Z               Mass       
    ------------   -----------------  -----------------  -----------------  -----------------
         S            0.000000000000     0.000000000000    -0.500000000000    31.972071174400
         S            0.000000000000    -1.299038105677     0.250000000000    31.972071174400
         S            0.000000000000     1.299038105677     0.250000000000    31.972071174400

  Running in c2v symmetry.

  Rotational constants: A =      1.40603  B =      0.15623  C =      0.14060 [cm^-1]
  Rotational constants: A =  42151.70639  B =   4683.52293  C =   4215.17064 [MHz]
  Nuclear repulsion =  232.768004500367368

  Charge       = -2
  Multiplicity = 1
  Electrons    = 50
  Nalpha       = 25
  Nbeta        = 25

  ==> Algorithm <==

  SCF Algorithm Type is DF.
  DIIS enabled.
  MOM disabled.
  Fractional occupation disabled.
  Guess Type is SAD.
  Energy threshold   = 1.00e-08
  Density threshold  = 1.00e-08
  Integral threshold = 0.00e+00

  ==> Primary Basis <==

  Basis Set: AUG-CC-PVTZ
    Blend: AUG-CC-PVTZ
    Number of shells: 48
    Number of basis function: 150
    Number of Cartesian functions: 177
    Spherical Harmonics?: true
    Max angular momentum: 3

  ==> DFT Potential <==

   => Composite Functional: LRC-WPBEH <= 

    LRC-wPBEh Hyb-GGA Exchange-Correlation Functional

    M. A. Rohrdanz, K. M. Martins, and J. M. Herbert, J. Chem. Phys. 130, 054112 (2009)

    Deriv               =              1
    GGA                 =           TRUE
    Meta                =          FALSE

    Exchange Hybrid     =           TRUE
    MP2 Hybrid          =          FALSE

   => Exchange Functionals <=

    0.8000   HJS screened exchange PBE version [omega = 0.2000]

   => Exact (HF) Exchange <=

    0.8000            HF,LR [omega = 0.2000]
    0.2000               HF 

   => Correlation Functionals <=

    1.0000   Perdew, Burke & Ernzerhof

   => Molecular Quadrature <=

    Radial Scheme          =       TREUTLER
    Pruning Scheme         =           NONE
    Nuclear Scheme         =       TREUTLER

    BS radius alpha        =              1
    Pruning alpha          =              1
    Radial Points          =             75
    Spherical Points       =            302
    Total Points           =          65714
    Total Blocks           =            600
    Max Points             =            256
    Max Functions          =            150
    Weights Tolerance      =       1.00E-15

   => Loading Basis Set <=

    Name: (AUG-CC-PVTZ AUX)
    Role: JKFIT
    Keyword: DF_BASIS_SCF
    atoms 1-3 entry S          line   730 file /apps/gb/PSI4/1.4.0/share/psi4/basis/aug-cc-pvtz-jkfit.gbs 

  ==> Pre-Iterations <==

   -------------------------------------------------------
    Irrep   Nso     Nmo     Nalpha   Nbeta   Ndocc  Nsocc
   -------------------------------------------------------
     A1        54      54       0       0       0       0
     A2        22      22       0       0       0       0
     B1        29      29       0       0       0       0
     B2        45      45       0       0       0       0
   -------------------------------------------------------
    Total     150     150      25      25      25       0
   -------------------------------------------------------

  ==> Integral Setup <==

  ==> DiskDFJK: Density-Fitted J/K Matrices <==

    J tasked:                  Yes
    K tasked:                  Yes
    wK tasked:                 Yes
    Omega:               2.000E-01
    OpenMP threads:              1
    Integrals threads:           1
    Memory [MiB]:             6880
    Algorithm:                Core
    Integral Cache:           NONE
    Schwarz Cutoff:          1E-12
    Fitting Condition:       1E-10

   => Auxiliary Basis Set <=

  Basis Set: (AUG-CC-PVTZ AUX)
    Blend: AUG-CC-PVTZ-JKFIT
    Number of shells: 126
    Number of basis function: 438
    Number of Cartesian functions: 540
    Spherical Harmonics?: true
    Max angular momentum: 4

  Cached 100.0% of DFT collocation blocks in 0.265 [GiB].

  Minimum eigenvalue in the overlap matrix is 5.9779644928E-05.
  Using Symmetric Orthogonalization.

  SCF Guess: Superposition of Atomic Densities via on-the-fly atomic UHF.

  ==> Iterations <==

                           Total Energy        Delta E     RMS |[F,P]|

   @DF-UKS iter SAD: -1195.86855666367865   -1.19587e+03   0.00000e+00 
    Occupation by irrep:
             A1    A2    B1    B2 
    DOCC [    11,    2,    3,    9 ]
    SOCC [     0,    0,    0,    0 ]

   @DF-UKS iter   1: -1193.24571540681700    2.62284e+00   9.87190e-03 DIIS
    Occupation by irrep:
             A1    A2    B1    B2 
    DOCC [    11,    2,    4,    8 ]
    SOCC [     0,    0,    0,    0 ]

   @DF-UKS iter   2: -1191.65268555086936    1.59303e+00   1.82284e-02 DIIS
   @DF-UKS iter   3: -1193.53329018270642   -1.88060e+00   4.04902e-03 DIIS
   @DF-UKS iter   4: -1193.62352493130652   -9.02347e-02   1.12622e-03 DIIS
   @DF-UKS iter   5: -1193.63594363064635   -1.24187e-02   7.57317e-04 DIIS
   @DF-UKS iter   6: -1193.63907678889518   -3.13316e-03   4.57434e-04 DIIS
   @DF-UKS iter   7: -1193.64062486828993   -1.54808e-03   2.50299e-04 DIIS
   @DF-UKS iter   8: -1193.64142939095518   -8.04523e-04   1.00078e-04 DIIS
   @DF-UKS iter   9: -1193.64167574869452   -2.46358e-04   2.36987e-05 DIIS
   @DF-UKS iter  10: -1193.64171819589637   -4.24472e-05   1.52169e-05 DIIS
   @DF-UKS iter  11: -1193.64173150583792   -1.33099e-05   5.10702e-06 DIIS
   @DF-UKS iter  12: -1193.64173400397749   -2.49814e-06   1.48966e-06 DIIS
   @DF-UKS iter  13: -1193.64173412485479   -1.20877e-07   3.58249e-07 DIIS
   @DF-UKS iter  14: -1193.64173412923628   -4.38149e-09   1.03162e-07 DIIS
   @DF-UKS iter  15: -1193.64173412955461   -3.18323e-10   3.36964e-08 DIIS
   @DF-UKS iter  16: -1193.64173412958485   -3.02407e-11   1.58256e-08 DIIS
   @DF-UKS iter  17: -1193.64173412959053   -5.68434e-12   5.30730e-09 DIIS
  Energy and wave function converged.


  ==> Post-Iterations <==

   @Spin Contamination Metric:   6.394884622E-14
   @S^2 Expected:                0.000000000E+00
   @S^2 Observed:                6.394884622E-14
   @S   Expected:                0.000000000E+00
   @S   Observed:                0.000000000E+00

    Orbital Energies [Eh]
    ---------------------

    Alpha Occupied:                                                       

       1A1   -88.584276     2A1   -88.545628     1B2   -88.545628  
       3A1    -7.706468     2B2    -7.657957     4A1    -7.657836  
       3B2    -5.661516     5A1    -5.651697     1B1    -5.648788  
       6A1    -5.611444     4B2    -5.610898     1A2    -5.603552  
       2B1    -5.603538     5B2    -5.601916     7A1    -5.601909  
       8A1    -0.749748     6B2    -0.544016     9A1    -0.249081  
       3B1    -0.206443    10A1    -0.190563     7B2    -0.142436  
       2A2    -0.017495     8B2     0.017236    11A1     0.060838  
       4B1     0.169073  

    Alpha Virtual:                                                        

       9B2     0.266930    12A1     0.272233    13A1     0.308515  
       3A2     0.331318    10B2     0.335522    14A1     0.339112  
       5B1     0.340855    11B2     0.355177     6B1     0.360645  
      15A1     0.388671    16A1     0.442156    12B2     0.459096  
      17A1     0.495252     7B1     0.512458    18A1     0.539319  
      13B2     0.543803     4A2     0.553241    14B2     0.567564  
      19A1     0.581810    15B2     0.608539     8B1     0.610914  
       5A2     0.617125    20A1     0.637473     9B1     0.657977  
      21A1     0.672942    16B2     0.675784     6A2     0.718913  
      22A1     0.735449    17B2     0.755578    10B1     0.762783  
      23A1     0.788405     7A2     0.819245    18B2     0.843731  
      19B2     0.850316    24A1     0.852163    11B1     0.856381  
      25A1     0.861957    26A1     0.888604    12B1     0.900306  
      20B2     0.929297     8A2     0.931719    21B2     0.970511  
       9A2     0.989127    27A1     0.990081    13B1     0.995612  
      28A1     1.008437    29A1     1.064595    22B2     1.093568  
      14B1     1.117544    23B2     1.132486    15B1     1.168369  
      30A1     1.188008    10A2     1.197763    24B2     1.237067  
      11A2     1.241222    16B1     1.250602    31A1     1.256728  
      32A1     1.317940    25B2     1.346069    33A1     1.379914  
      26B2     1.421950    17B1     1.433571    12A2     1.444308  
      34A1     1.463621    27B2     1.482175    13A2     1.483268  
      28B2     1.537484    35A1     1.598103    18B1     1.613566  
      19B1     1.645248    29B2     1.680025    36A1     1.698467  
      14A2     1.731253    30B2     1.743606    37A1     1.874760  
      31B2     1.948574    38A1     1.967612    20B1     2.048207  
      15A2     2.070334    39A1     2.107207    21B1     2.115220  
      32B2     2.154402    40A1     2.168086    16A2     2.245431  
      17A2     2.277816    41A1     2.282418    22B1     2.287099  
      33B2     2.297916    42A1     2.320625    43A1     2.377102  
      23B1     2.397728    34B2     2.411026    44A1     2.419117  
      35B2     2.437191    36B2     2.452741    24B1     2.460976  
      18A2     2.512276    45A1     2.527488    37B2     2.544221  
      25B1     2.547939    19A2     2.571454    46A1     2.614300  
      38B2     2.748267    39B2     2.775600    26B1     2.777732  
      20A2     2.810590    47A1     2.864415    27B1     2.933960  
      48A1     2.991907    21A2     3.038955    28B1     3.164361  
      40B2     3.224809    49A1     3.241810    41B2     3.282110  
      22A2     3.297787    50A1     3.350742    29B1     3.418540  
      42B2     3.599248    51A1     3.601308    43B2     3.820491  
      44B2     3.864732    52A1     4.010233    53A1     7.210883  
      45B2     7.647908    54A1     9.036243  

    Beta Occupied:                                                        

       1A1   -88.584276     2A1   -88.545628     1B2   -88.545628  
       3A1    -7.706468     2B2    -7.657957     4A1    -7.657836  
       3B2    -5.661516     5A1    -5.651697     1B1    -5.648788  
       6A1    -5.611444     4B2    -5.610898     1A2    -5.603552  
       2B1    -5.603538     5B2    -5.601916     7A1    -5.601909  
       8A1    -0.749748     6B2    -0.544016     9A1    -0.249081  
       3B1    -0.206443    10A1    -0.190563     7B2    -0.142436  
       2A2    -0.017495     8B2     0.017236    11A1     0.060838  
       4B1     0.169073  

    Beta Virtual:                                                         

       9B2     0.266930    12A1     0.272233    13A1     0.308515  
       3A2     0.331318    10B2     0.335522    14A1     0.339112  
       5B1     0.340855    11B2     0.355177     6B1     0.360645  
      15A1     0.388671    16A1     0.442156    12B2     0.459096  
      17A1     0.495252     7B1     0.512458    18A1     0.539319  
      13B2     0.543803     4A2     0.553241    14B2     0.567564  
      19A1     0.581810    15B2     0.608539     8B1     0.610914  
       5A2     0.617125    20A1     0.637473     9B1     0.657977  
      21A1     0.672942    16B2     0.675784     6A2     0.718913  
      22A1     0.735449    17B2     0.755578    10B1     0.762783  
      23A1     0.788405     7A2     0.819245    18B2     0.843731  
      19B2     0.850316    24A1     0.852163    11B1     0.856381  
      25A1     0.861957    26A1     0.888604    12B1     0.900306  
      20B2     0.929297     8A2     0.931719    21B2     0.970511  
       9A2     0.989127    27A1     0.990081    13B1     0.995612  
      28A1     1.008437    29A1     1.064595    22B2     1.093568  
      14B1     1.117544    23B2     1.132486    15B1     1.168369  
      30A1     1.188008    10A2     1.197763    24B2     1.237067  
      11A2     1.241222    16B1     1.250602    31A1     1.256728  
      32A1     1.317940    25B2     1.346069    33A1     1.379914  
      26B2     1.421950    17B1     1.433571    12A2     1.444308  
      34A1     1.463621    27B2     1.482175    13A2     1.483268  
      28B2     1.537484    35A1     1.598103    18B1     1.613566  
      19B1     1.645248    29B2     1.680025    36A1     1.698467  
      14A2     1.731253    30B2     1.743606    37A1     1.874760  
      31B2     1.948574    38A1     1.967612    20B1     2.048207  
      15A2     2.070334    39A1     2.107207    21B1     2.115220  
      32B2     2.154402    40A1     2.168086    16A2     2.245431  
      17A2     2.277816    41A1     2.282418    22B1     2.287099  
      33B2     2.297916    42A1     2.320625    43A1     2.377102  
      23B1     2.397728    34B2     2.411026    44A1     2.419117  
      35B2     2.437191    36B2     2.452741    24B1     2.460976  
      18A2     2.512276    45A1     2.527488    37B2     2.544221  
      25B1     2.547939    19A2     2.571454    46A1     2.614300  
      38B2     2.748267    39B2     2.775600    26B1     2.777732  
      20A2     2.810590    47A1     2.864415    27B1     2.933960  
      48A1     2.991907    21A2     3.038955    28B1     3.164361  
      40B2     3.224809    49A1     3.241810    41B2     3.282110  
      22A2     3.297787    50A1     3.350742    29B1     3.418540  
      42B2     3.599248    51A1     3.601308    43B2     3.820491  
      44B2     3.864732    52A1     4.010233    53A1     7.210883  
      45B2     7.647908    54A1     9.036243  

    Final Occupation by Irrep:
             A1    A2    B1    B2 
    DOCC [    11,    2,    4,    8 ]
    SOCC [     0,    0,    0,    0 ]

  @DF-UKS Final Energy: -1193.64173412959053

   => Energetics <=

    Nuclear Repulsion Energy =            232.7680045003673683
    One-Electron Energy =               -2130.7222358154626818
    Two-Electron Energy =                 762.3457652805047928
    DFT Exchange-Correlation Energy =     -58.0332680950002455
    Empirical Dispersion Energy =           0.0000000000000000
    VV10 Nonlocal Energy =                  0.0000000000000000
    Total Energy =                      -1193.6417341295907590

  UHF NO Occupations:
  HONO-2 :    8 B2 2.0000000
  HONO-1 :   10 A1 2.0000000
  HONO-0 :   11 A1 2.0000000
  LUNO+0 :   12 A1 0.0000000
  LUNO+1 :    9 B2 0.0000000
  LUNO+2 :   10 B2 0.0000000
  LUNO+3 :   13 A1 0.0000000


Computation Completed


Properties will be evaluated at   0.000000,   0.000000,   0.000000 [a0]

Properties computed using the SCF density matrix

  Nuclear Dipole Moment: [e a0]
     X:     0.0000      Y:     0.0000      Z:     0.0000

  Electronic Dipole Moment: [e a0]
     X:     0.0000      Y:     0.0000      Z:    -1.8637

  Dipole Moment: [e a0]
     X:     0.0000      Y:     0.0000      Z:    -1.8637     Total:     1.8637

  Dipole Moment: [D]
     X:     0.0000      Y:     0.0000      Z:    -4.7369     Total:     4.7369


*** tstop() called on c2-5.compute.lan at Fri Jan 29 11:00:14 2021
Module time:
	user time   =      31.32 seconds =       0.52 minutes
	system time =       0.40 seconds =       0.01 minutes
	total time  =         32 seconds =       0.53 minutes
Total time:
	user time   =      31.32 seconds =       0.52 minutes
	system time =       0.40 seconds =       0.01 minutes
	total time  =         32 seconds =       0.53 minutes

*** tstart() called on c2-5.compute.lan
*** at Fri Jan 29 11:00:14 2021


         ------------------------------------------------------------
                                   SCF GRAD                          
                          Rob Parrish, Justin Turney,                
                       Andy Simmonett, and Alex Sokolov              
         ------------------------------------------------------------

  ==> Geometry <==

    Molecular point group: c2v
    Full point group: C2v

    Geometry (in Angstrom), charge = -2, multiplicity = 1:

       Center              X                  Y                   Z               Mass       
    ------------   -----------------  -----------------  -----------------  -----------------
         S            0.000000000000     0.000000000000    -0.500000000000    31.972071174400
         S            0.000000000000    -1.299038105677     0.250000000000    31.972071174400
         S            0.000000000000     1.299038105677     0.250000000000    31.972071174400

  Nuclear repulsion =  232.768004500367368

  ==> Basis Set <==

  Basis Set: AUG-CC-PVTZ
    Blend: AUG-CC-PVTZ
    Number of shells: 48
    Number of basis function: 150
    Number of Cartesian functions: 177
    Spherical Harmonics?: true
    Max angular momentum: 3

  ==> DFJKGrad: Density-Fitted SCF Gradients <==

    Gradient:                    1
    J tasked:                  Yes
    K tasked:                  Yes
    wK tasked:                 Yes
    Omega:               2.000E-01
    OpenMP threads:              1
    Integrals threads:           1
    Memory [MiB]:             7152
    Schwarz Cutoff:          0E+00
    Fitting Condition:       1E-10

   => Auxiliary Basis Set <=

  Basis Set: (AUG-CC-PVTZ AUX)
    Blend: AUG-CC-PVTZ-JKFIT
    Number of shells: 126
    Number of basis function: 438
    Number of Cartesian functions: 540
    Spherical Harmonics?: true
    Max angular momentum: 4

  ==> DFT Potential <==

   => Composite Functional: LRC-WPBEH <= 

    LRC-wPBEh Hyb-GGA Exchange-Correlation Functional

    M. A. Rohrdanz, K. M. Martins, and J. M. Herbert, J. Chem. Phys. 130, 054112 (2009)

    Deriv               =              1
    GGA                 =           TRUE
    Meta                =          FALSE

    Exchange Hybrid     =           TRUE
    MP2 Hybrid          =          FALSE

   => Exchange Functionals <=

    0.8000   HJS screened exchange PBE version [omega = 0.2000]

   => Exact (HF) Exchange <=

    0.8000            HF,LR [omega = 0.2000]
    0.2000               HF 

   => Correlation Functionals <=

    1.0000   Perdew, Burke & Ernzerhof

   => Molecular Quadrature <=

    Radial Scheme          =       TREUTLER
    Pruning Scheme         =           NONE
    Nuclear Scheme         =       TREUTLER

    BS radius alpha        =              1
    Pruning alpha          =              1
    Radial Points          =             75
    Spherical Points       =            302
    Total Points           =          65714
    Total Blocks           =            600
    Max Points             =            256
    Max Functions          =            150
    Weights Tolerance      =       1.00E-15


  -Total Gradient:
     Atom            X                  Y                   Z
    ------   -----------------  -----------------  -----------------
       1        0.000000000000     0.000000000000     0.761892182425
       2       -0.000000000000     0.683965355025    -0.380928977678
       3        0.000000000000    -0.683965355025    -0.380928977678


*** tstop() called on c2-5.compute.lan at Fri Jan 29 11:00:25 2021
Module time:
	user time   =      11.00 seconds =       0.18 minutes
	system time =       0.14 seconds =       0.00 minutes
	total time  =         11 seconds =       0.18 minutes
Total time:
	user time   =      42.32 seconds =       0.71 minutes
	system time =       0.55 seconds =       0.01 minutes
	total time  =         43 seconds =       0.72 minutes

			-----------------------------------------
			 OPTKING 2.0: for geometry optimizations 
			  - R.A. King,  Bethel University        
			-----------------------------------------

	Internal coordinates to be generated automatically.
	Detected frag 1 with atoms:  1 2 3
	---Fragment 1 Bond Connectivity---
	 1 : 2 3
	 2 : 1 3
	 3 : 1 2

	---Fragment 1 Geometry and Gradient---
	 S           0.0000000000        0.0000000000       -0.9448630627
	 S           0.0000000000       -2.4548262463        0.4724315314
	 S           0.0000000000        2.4548262463        0.4724315314
	             0.0000000000        0.0000000000        0.7618921824
	            -0.0000000000        0.6839653550       -0.3809289777
	             0.0000000000       -0.6839653550       -0.3809289777

	Previous optimization step data not found.  Starting new optimization.

	---Fragment 1 Intrafragment Coordinates---
	 - Coordinate -           - BOHR/RAD -       - ANG/DEG -
	 R(1,2)           =         2.834589	       1.500000
	 R(1,3)           =         2.834589	       1.500000
	 R(2,3)           =         4.909652	       2.598076
	 B(1,2,3)         =         0.523599	      30.000000
	 B(1,3,2)         =         0.523599	      30.000000
	 B(2,1,3)         =         2.094395	     120.000000

	Current energy   :     -1193.6417341296

	Generating empirical Hessian (Schlegel '84) for each fragment.
	Taking RFO optimization step.
	Going to follow RFO solution 1.
	Using RFO vector 1.
	Norm of target step-size    0.32931
	Projected energy change by RFO approximation:        -0.2498073289

	Back-transformation to cartesian coordinates...
	Successfully converged to displaced geometry.

	--- Internal Coordinate Step in ANG or DEG, aJ/ANG or AJ/DEG ---
	 ---------------------------------------------------------------------------
	   Coordinate                Previous        Force       Change         New 
	   ----------                --------       ------       ------       ------
	    1 R(1,2)          =      1.500000     3.869353     0.094180     1.594180
	    2 R(1,3)          =      1.500000     3.869353     0.094180     1.594180
	    3 R(2,3)          =      2.598076     2.979049     0.101079     2.699155
	    4 B(1,2,3)        =     30.000000     0.012130     2.159953    32.159953
	    5 B(1,3,2)        =     30.000000     0.012130     2.159953    32.159953
	    6 B(2,1,3)        =    120.000000    -0.024260    -4.319906   115.680094
	 ---------------------------------------------------------------------------
	Successfully symmetrized geometry.

  ==> Convergence Check <==

  Measures of convergence in internal coordinates in au.
  Criteria marked as inactive (o), active & met (*), and active & unmet ( ).
  --------------------------------------------------------------------------------------------- ~
   Step     Total Energy     Delta E     MAX Force     RMS Force      MAX Disp      RMS Disp    ~
  --------------------------------------------------------------------------------------------- ~
    Convergence Criteria    1.00e-06 *    3.00e-04 *             o    1.20e-03 *             o  ~
  --------------------------------------------------------------------------------------------- ~
      1   -1193.64173413   -1.19e+03      4.70e-01      3.47e-01 o    1.91e-01      1.34e-01 o  ~
  ---------------------------------------------------------------------------------------------

	Writing optimization data to binary file.
	Structure for next step:
	Cartesian Geometry (in Angstrom)
	    S     0.0000000000   0.0000000000  -0.5657050681
	    S     0.0000000000  -1.3495776253   0.2828525340
	    S     0.0000000000   1.3495776253   0.2828525340
			--------------------------
			 OPTKING Finished Execution 
			--------------------------

    Structure for next step:
    Molecular point group: c2v
    Full point group: C2v

    Geometry (in Angstrom), charge = -2, multiplicity = 1:

    S       
    S             1          R1
    S             1          R2      2          A1

    A1        =  115.6800940056
    R1        =    1.5941799744
    R2        =    1.5941799744

gradient() will perform analytic gradient computation.

*** tstart() called on c2-5.compute.lan
*** at Fri Jan 29 11:00:25 2021

   => Loading Basis Set <=

    Name: AUG-CC-PVTZ
    Role: ORBITAL
    Keyword: BASIS
    atoms 1-3 entry S          line   906 file /apps/gb/PSI4/1.4.0/share/psi4/basis/aug-cc-pvtz.gbs 


         ---------------------------------------------------------
                                   SCF
               by Justin Turney, Rob Parrish, Andy Simmonett
                          and Daniel G. A. Smith
                              UKS Reference
                        1 Threads,   9536 MiB Core
         ---------------------------------------------------------

  ==> Geometry <==

    Molecular point group: c2v
    Full point group: C2v

    Geometry (in Angstrom), charge = -2, multiplicity = 1:

       Center              X                  Y                   Z               Mass       
    ------------   -----------------  -----------------  -----------------  -----------------
         S            0.000000000000     0.000000000000    -0.565705070297    31.972071174400
         S            0.000000000000    -1.349577630617     0.282852535148    31.972071174400
         S            0.000000000000     1.349577630617     0.282852535148    31.972071174400

  Running in c2v symmetry.

  Rotational constants: A =      1.09838  B =      0.14474  C =      0.12789 [cm^-1]
  Rotational constants: A =  32928.73346  B =   4339.31013  C =   3834.06192 [MHz]
  Nuclear repulsion =  220.144463003592080

  Charge       = -2
  Multiplicity = 1
  Electrons    = 50
  Nalpha       = 25
  Nbeta        = 25

  ==> Algorithm <==

  SCF Algorithm Type is DF.
  DIIS enabled.
  MOM disabled.
  Fractional occupation disabled.
  Guess Type is READ.
  Energy threshold   = 1.00e-08
  Density threshold  = 1.00e-08
  Integral threshold = 0.00e+00

  ==> Primary Basis <==

  Basis Set: AUG-CC-PVTZ
    Blend: AUG-CC-PVTZ
    Number of shells: 48
    Number of basis function: 150
    Number of Cartesian functions: 177
    Spherical Harmonics?: true
    Max angular momentum: 3

  ==> DFT Potential <==

   => Composite Functional: LRC-WPBEH <= 

    LRC-wPBEh Hyb-GGA Exchange-Correlation Functional

    M. A. Rohrdanz, K. M. Martins, and J. M. Herbert, J. Chem. Phys. 130, 054112 (2009)

    Deriv               =              1
    GGA                 =           TRUE
    Meta                =          FALSE

    Exchange Hybrid     =           TRUE
    MP2 Hybrid          =          FALSE

   => Exchange Functionals <=

    0.8000   HJS screened exchange PBE version [omega = 0.2000]

   => Exact (HF) Exchange <=

    0.8000            HF,LR [omega = 0.2000]
    0.2000               HF 

   => Correlation Functionals <=

    1.0000   Perdew, Burke & Ernzerhof

   => Molecular Quadrature <=

    Radial Scheme          =       TREUTLER
    Pruning Scheme         =           NONE
    Nuclear Scheme         =       TREUTLER

    BS radius alpha        =              1
    Pruning alpha          =              1
    Radial Points          =             75
    Spherical Points       =            302
    Total Points           =          65750
    Total Blocks           =            601
    Max Points             =            255
    Max Functions          =            150
    Weights Tolerance      =       1.00E-15

   => Loading Basis Set <=

    Name: (AUG-CC-PVTZ AUX)
    Role: JKFIT
    Keyword: DF_BASIS_SCF
    atoms 1-3 entry S          line   730 file /apps/gb/PSI4/1.4.0/share/psi4/basis/aug-cc-pvtz-jkfit.gbs 

   => Loading Basis Set <=

    Name: AUG-CC-PVTZ
    Role: ORBITAL
    Keyword: BASIS
    atoms 1-3 entry S          line   906 file /apps/gb/PSI4/1.4.0/share/psi4/basis/aug-cc-pvtz.gbs 

  Reading orbitals from file 180, no projection.

  ==> Pre-Iterations <==

   -------------------------------------------------------
    Irrep   Nso     Nmo     Nalpha   Nbeta   Ndocc  Nsocc
   -------------------------------------------------------
     A1        54      54       0       0       0       0
     A2        22      22       0       0       0       0
     B1        29      29       0       0       0       0
     B2        45      45       0       0       0       0
   -------------------------------------------------------
    Total     150     150      25      25      25       0
   -------------------------------------------------------

  ==> Integral Setup <==

  ==> DiskDFJK: Density-Fitted J/K Matrices <==

    J tasked:                  Yes
    K tasked:                  Yes
    wK tasked:                 Yes
    Omega:               2.000E-01
    OpenMP threads:              1
    Integrals threads:           1
    Memory [MiB]:             6881
    Algorithm:                Core
    Integral Cache:           NONE
    Schwarz Cutoff:          1E-12
    Fitting Condition:       1E-10

   => Auxiliary Basis Set <=

  Basis Set: (AUG-CC-PVTZ AUX)
    Blend: AUG-CC-PVTZ-JKFIT
    Number of shells: 126
    Number of basis function: 438
    Number of Cartesian functions: 540
    Spherical Harmonics?: true
    Max angular momentum: 4

  Cached 100.0% of DFT collocation blocks in 0.265 [GiB].

  Minimum eigenvalue in the overlap matrix is 7.6439509480E-05.
  Using Symmetric Orthogonalization.

  SCF Guess: Orbitals guess was supplied from a previous computation.

  ==> Iterations <==

                           Total Energy        Delta E     RMS |[F,P]|

   @DF-UKS iter   0: -1193.82042560358786   -1.19382e+03   1.03524e-02 
   @DF-UKS iter   1: -1193.86210182548825   -4.16762e-02   7.82820e-04 DIIS
   @DF-UKS iter   2: -1193.86289290972263   -7.91084e-04   7.28005e-04 DIIS
   @DF-UKS iter   3: -1193.86475647310317   -1.86356e-03   1.60583e-04 DIIS
   @DF-UKS iter   4: -1193.86489786804714   -1.41395e-04   4.31385e-05 DIIS
   @DF-UKS iter   5: -1193.86496655665701   -6.86886e-05   2.46326e-05 DIIS
   @DF-UKS iter   6: -1193.86498290050395   -1.63438e-05   1.01133e-05 DIIS
   @DF-UKS iter   7: -1193.86498888622941   -5.98573e-06   3.92224e-06 DIIS
   @DF-UKS iter   8: -1193.86498977678889   -8.90559e-07   2.67867e-06 DIIS
   @DF-UKS iter   9: -1193.86499008182386   -3.05035e-07   1.05433e-06 DIIS
   @DF-UKS iter  10: -1193.86499017909182   -9.72680e-08   3.36303e-07 DIIS
   @DF-UKS iter  11: -1193.86499018551808   -6.42626e-09   9.32618e-08 DIIS
   @DF-UKS iter  12: -1193.86499018588529   -3.67208e-10   2.40861e-08 DIIS
   @DF-UKS iter  13: -1193.86499018590644   -2.11458e-11   6.84208e-09 DIIS
  Energy and wave function converged.


  ==> Post-Iterations <==

   @Spin Contamination Metric:   7.105427358E-15
   @S^2 Expected:                0.000000000E+00
   @S^2 Observed:                7.105427358E-15
   @S   Expected:                0.000000000E+00
   @S   Observed:                0.000000000E+00

    Orbital Energies [Eh]
    ---------------------

    Alpha Occupied:                                                       

       1A1   -88.582773     1B2   -88.540520     2A1   -88.540519  
       3A1    -7.690875     2B2    -7.643545     4A1    -7.643509  
       3B2    -5.645031     5A1    -5.638091     1B1    -5.634752  
       6A1    -5.597099     4B2    -5.596955     1A2    -5.590075  
       2B1    -5.590071     5B2    -5.589129     7A1    -5.589127  
       8A1    -0.697316     6B2    -0.503401     9A1    -0.240658  
       3B1    -0.163059    10A1    -0.157553     7B2    -0.127765  
       2A2     0.007089     8B2     0.039463    11A1     0.058410  
       4B1     0.164019  

    Alpha Virtual:                                                        

       9B2     0.270402    12A1     0.275013    13A1     0.312924  
       3A2     0.340231    10B2     0.340780    14A1     0.343584  
       5B1     0.344946    11B2     0.358197     6B1     0.360152  
      15A1     0.399018    16A1     0.448600    12B2     0.462845  
      17A1     0.498565     7B1     0.526203    13B2     0.541436  
      18A1     0.551757     4A2     0.561017    14B2     0.575678  
      19A1     0.591685    15B2     0.616887     8B1     0.618589  
       5A2     0.629911    20A1     0.634773     9B1     0.661180  
      16B2     0.673821    21A1     0.694859     6A2     0.720248  
      22A1     0.737820    17B2     0.750021    10B1     0.778836  
      23A1     0.805029     7A2     0.840720    18B2     0.859421  
      24A1     0.861265    19B2     0.870503    11B1     0.876323  
      25A1     0.878258    26A1     0.897060    12B1     0.910972  
      20B2     0.929951     8A2     0.932623    27A1     0.971860  
      21B2     0.986909    13B1     0.996399     9A2     1.004591  
      28A1     1.010444    29A1     1.071616    22B2     1.098205  
      23B2     1.115157    14B1     1.123244    15B1     1.166457  
      30A1     1.186489    10A2     1.193794    11A2     1.229186  
      24B2     1.234950    16B1     1.236726    31A1     1.247476  
      32A1     1.306239    25B2     1.340640    33A1     1.374101  
      26B2     1.422512    17B1     1.428504    12A2     1.450527  
      27B2     1.467173    34A1     1.468536    13A2     1.475408  
      28B2     1.550519    18B1     1.592843    35A1     1.615156  
      19B1     1.631642    29B2     1.655472    36A1     1.676206  
      14A2     1.700067    30B2     1.760959    37A1     1.839767  
      31B2     1.882549    38A1     1.885680    20B1     2.089630  
      15A2     2.109927    39A1     2.142374    21B1     2.166809  
      32B2     2.182532    40A1     2.194823    16A2     2.256231  
      22B1     2.285040    41A1     2.299017    17A2     2.316008  
      42A1     2.326532    33B2     2.329104    43A1     2.341402  
      34B2     2.373189    44A1     2.397371    23B1     2.422583  
      24B1     2.440782    35B2     2.443308    36B2     2.467241  
      45A1     2.523121    18A2     2.526864    37B2     2.559907  
      25B1     2.565400    19A2     2.588898    46A1     2.634497  
      38B2     2.691429    39B2     2.708741    26B1     2.711818  
      20A2     2.734446    47A1     2.828381    27B1     2.889589  
      48A1     2.912256    21A2     2.951952    28B1     3.074654  
      40B2     3.110461    41B2     3.122742    49A1     3.190945  
      22A2     3.246986    50A1     3.311836    29B1     3.329806  
      42B2     3.478688    51A1     3.537317    43B2     3.723428  
      52A1     3.804855    44B2     3.931234    53A1     6.559835  
      45B2     6.988778    54A1     7.965599  

    Beta Occupied:                                                        

       1A1   -88.582773     1B2   -88.540520     2A1   -88.540519  
       3A1    -7.690875     2B2    -7.643545     4A1    -7.643509  
       3B2    -5.645031     5A1    -5.638091     1B1    -5.634752  
       6A1    -5.597099     4B2    -5.596955     1A2    -5.590075  
       2B1    -5.590071     5B2    -5.589129     7A1    -5.589127  
       8A1    -0.697316     6B2    -0.503401     9A1    -0.240658  
       3B1    -0.163059    10A1    -0.157553     7B2    -0.127765  
       2A2     0.007089     8B2     0.039463    11A1     0.058410  
       4B1     0.164019  

    Beta Virtual:                                                         

       9B2     0.270402    12A1     0.275013    13A1     0.312924  
       3A2     0.340231    10B2     0.340780    14A1     0.343584  
       5B1     0.344946    11B2     0.358197     6B1     0.360152  
      15A1     0.399018    16A1     0.448600    12B2     0.462845  
      17A1     0.498565     7B1     0.526203    13B2     0.541436  
      18A1     0.551757     4A2     0.561017    14B2     0.575678  
      19A1     0.591685    15B2     0.616887     8B1     0.618589  
       5A2     0.629911    20A1     0.634773     9B1     0.661180  
      16B2     0.673821    21A1     0.694859     6A2     0.720248  
      22A1     0.737820    17B2     0.750021    10B1     0.778836  
      23A1     0.805029     7A2     0.840720    18B2     0.859421  
      24A1     0.861265    19B2     0.870503    11B1     0.876323  
      25A1     0.878258    26A1     0.897060    12B1     0.910972  
      20B2     0.929951     8A2     0.932623    27A1     0.971860  
      21B2     0.986909    13B1     0.996399     9A2     1.004591  
      28A1     1.010444    29A1     1.071616    22B2     1.098205  
      23B2     1.115157    14B1     1.123244    15B1     1.166457  
      30A1     1.186489    10A2     1.193794    11A2     1.229186  
      24B2     1.234950    16B1     1.236726    31A1     1.247476  
      32A1     1.306239    25B2     1.340640    33A1     1.374101  
      26B2     1.422512    17B1     1.428504    12A2     1.450527  
      27B2     1.467173    34A1     1.468536    13A2     1.475408  
      28B2     1.550519    18B1     1.592843    35A1     1.615156  
      19B1     1.631642    29B2     1.655472    36A1     1.676206  
      14A2     1.700067    30B2     1.760959    37A1     1.839767  
      31B2     1.882549    38A1     1.885680    20B1     2.089630  
      15A2     2.109927    39A1     2.142374    21B1     2.166809  
      32B2     2.182532    40A1     2.194823    16A2     2.256231  
      22B1     2.285040    41A1     2.299017    17A2     2.316008  
      42A1     2.326532    33B2     2.329104    43A1     2.341402  
      34B2     2.373189    44A1     2.397371    23B1     2.422583  
      24B1     2.440782    35B2     2.443308    36B2     2.467241  
      45A1     2.523121    18A2     2.526864    37B2     2.559907  
      25B1     2.565400    19A2     2.588898    46A1     2.634497  
      38B2     2.691429    39B2     2.708741    26B1     2.711818  
      20A2     2.734446    47A1     2.828381    27B1     2.889589  
      48A1     2.912256    21A2     2.951952    28B1     3.074654  
      40B2     3.110461    41B2     3.122742    49A1     3.190945  
      22A2     3.246986    50A1     3.311836    29B1     3.329806  
      42B2     3.478688    51A1     3.537317    43B2     3.723428  
      52A1     3.804855    44B2     3.931234    53A1     6.559835  
      45B2     6.988778    54A1     7.965599  

    Final Occupation by Irrep:
             A1    A2    B1    B2 
    DOCC [    11,    2,    4,    8 ]
    SOCC [     0,    0,    0,    0 ]

  @DF-UKS Final Energy: -1193.86499018590644

   => Energetics <=

    Nuclear Repulsion Energy =            220.1444630035920795
    One-Electron Energy =               -2106.8210156559471216
    Two-Electron Energy =                 750.7353227897681336
    DFT Exchange-Correlation Energy =     -57.9237603233196978
    Empirical Dispersion Energy =           0.0000000000000000
    VV10 Nonlocal Energy =                  0.0000000000000000
    Total Energy =                      -1193.8649901859066631

  UHF NO Occupations:
  HONO-2 :    8 B2 2.0000000
  HONO-1 :   10 A1 2.0000000
  HONO-0 :   11 A1 2.0000000
  LUNO+0 :   12 A1 0.0000000
  LUNO+1 :   13 A1 0.0000000
  LUNO+2 :    9 B2 0.0000000
  LUNO+3 :   14 A1 0.0000000


Computation Completed


Properties will be evaluated at   0.000000,   0.000000,   0.000000 [a0]

Properties computed using the SCF density matrix

  Nuclear Dipole Moment: [e a0]
     X:     0.0000      Y:     0.0000      Z:     0.0000

  Electronic Dipole Moment: [e a0]
     X:     0.0000      Y:     0.0000      Z:    -1.4563

  Dipole Moment: [e a0]
     X:     0.0000      Y:     0.0000      Z:    -1.4563     Total:     1.4563

  Dipole Moment: [D]
     X:     0.0000      Y:     0.0000      Z:    -3.7016     Total:     3.7016


*** tstop() called on c2-5.compute.lan at Fri Jan 29 11:00:50 2021
Module time:
	user time   =      24.44 seconds =       0.41 minutes
	system time =       0.21 seconds =       0.00 minutes
	total time  =         25 seconds =       0.42 minutes
Total time:
	user time   =      66.77 seconds =       1.11 minutes
	system time =       0.76 seconds =       0.01 minutes
	total time  =         68 seconds =       1.13 minutes

*** tstart() called on c2-5.compute.lan
*** at Fri Jan 29 11:00:50 2021


         ------------------------------------------------------------
                                   SCF GRAD                          
                          Rob Parrish, Justin Turney,                
                       Andy Simmonett, and Alex Sokolov              
         ------------------------------------------------------------

  ==> Geometry <==

    Molecular point group: c2v
    Full point group: C2v

    Geometry (in Angstrom), charge = -2, multiplicity = 1:

       Center              X                  Y                   Z               Mass       
    ------------   -----------------  -----------------  -----------------  -----------------
         S            0.000000000000     0.000000000000    -0.565705070297    31.972071174400
         S            0.000000000000    -1.349577630617     0.282852535148    31.972071174400
         S            0.000000000000     1.349577630617     0.282852535148    31.972071174400

  Nuclear repulsion =  220.144463003592165

  ==> Basis Set <==

  Basis Set: AUG-CC-PVTZ
    Blend: AUG-CC-PVTZ
    Number of shells: 48
    Number of basis function: 150
    Number of Cartesian functions: 177
    Spherical Harmonics?: true
    Max angular momentum: 3

  ==> DFJKGrad: Density-Fitted SCF Gradients <==

    Gradient:                    1
    J tasked:                  Yes
    K tasked:                  Yes
    wK tasked:                 Yes
    Omega:               2.000E-01
    OpenMP threads:              1
    Integrals threads:           1
    Memory [MiB]:             7152
    Schwarz Cutoff:          0E+00
    Fitting Condition:       1E-10

   => Auxiliary Basis Set <=

  Basis Set: (AUG-CC-PVTZ AUX)
    Blend: AUG-CC-PVTZ-JKFIT
    Number of shells: 126
    Number of basis function: 438
    Number of Cartesian functions: 540
    Spherical Harmonics?: true
    Max angular momentum: 4

  ==> DFT Potential <==

   => Composite Functional: LRC-WPBEH <= 

    LRC-wPBEh Hyb-GGA Exchange-Correlation Functional

    M. A. Rohrdanz, K. M. Martins, and J. M. Herbert, J. Chem. Phys. 130, 054112 (2009)

    Deriv               =              1
    GGA                 =           TRUE
    Meta                =          FALSE

    Exchange Hybrid     =           TRUE
    MP2 Hybrid          =          FALSE

   => Exchange Functionals <=

    0.8000   HJS screened exchange PBE version [omega = 0.2000]

   => Exact (HF) Exchange <=

    0.8000            HF,LR [omega = 0.2000]
    0.2000               HF 

   => Correlation Functionals <=

    1.0000   Perdew, Burke & Ernzerhof

   => Molecular Quadrature <=

    Radial Scheme          =       TREUTLER
    Pruning Scheme         =           NONE
    Nuclear Scheme         =       TREUTLER

    BS radius alpha        =              1
    Pruning alpha          =              1
    Radial Points          =             75
    Spherical Points       =            302
    Total Points           =          65750
    Total Blocks           =            601
    Max Points             =            255
    Max Functions          =            150
    Weights Tolerance      =       1.00E-15


  -Total Gradient:
     Atom            X                  Y                   Z
    ------   -----------------  -----------------  -----------------
       1        0.000000000000     0.000000000000     0.518405653521
       2       -0.000000000000     0.433485250626    -0.259199035770
       3        0.000000000000    -0.433485250626    -0.259199035770


*** tstop() called on c2-5.compute.lan at Fri Jan 29 11:01:01 2021
Module time:
	user time   =      11.18 seconds =       0.19 minutes
	system time =       0.13 seconds =       0.00 minutes
	total time  =         11 seconds =       0.18 minutes
Total time:
	user time   =      77.95 seconds =       1.30 minutes
	system time =       0.89 seconds =       0.01 minutes
	total time  =         79 seconds =       1.32 minutes

			-----------------------------------------
			 OPTKING 2.0: for geometry optimizations 
			  - R.A. King,  Bethel University        
			-----------------------------------------

	Previous internal coordinate definitions found.
	---Fragment 1 Geometry and Gradient---
	 S           0.0000000000        0.0000000000       -1.0690276506
	 S           0.0000000000       -2.5503321069        0.5345138253
	 S           0.0000000000        2.5503321069        0.5345138253
	             0.0000000000        0.0000000000        0.5184056535
	            -0.0000000000        0.4334852506       -0.2591990358
	             0.0000000000       -0.4334852506       -0.2591990358

	---Fragment 1 Intrafragment Coordinates---
	 - Coordinate -           - BOHR/RAD -       - ANG/DEG -
	 R(1,2)           =         3.012564	       1.594180
	 R(1,3)           =         3.012564	       1.594180
	 R(2,3)           =         5.100664	       2.699155
	 B(1,2,3)         =         0.561297	      32.159953
	 B(1,3,2)         =         0.561297	      32.159953
	 B(2,1,3)         =         2.018999	     115.680094

	Current energy   :     -1193.8649901859

	Energy change for the previous step:
		Projected    :        -0.2498073289
		Actual       :        -0.2232560563
	Energy ratio indicates good step: Trust radius increased to 1.000e+00.


	Performing BFGS update.
	Previous computed or guess Hessian on step 1.
	Steps to be used in Hessian update: 1
	Taking RFO optimization step.
	Going to follow RFO solution 1.
	Using RFO vector 1.
	Norm of target step-size    0.48962
	Projected energy change by RFO approximation:        -0.2444808760

	Back-transformation to cartesian coordinates...
	Successfully converged to displaced geometry.

	--- Internal Coordinate Step in ANG or DEG, aJ/ANG or AJ/DEG ---
	 ---------------------------------------------------------------------------
	   Coordinate                Previous        Force       Change         New 
	   ----------                --------       ------       ------       ------
	    1 R(1,2)          =      1.594180     2.661182     0.152816     1.746996
	    2 R(1,3)          =      1.594180     2.661182     0.152816     1.746996
	    3 R(2,3)          =      2.699155     1.770566     0.075143     2.774298
	    4 B(1,2,3)        =     32.159953     0.007877     5.277285    37.437238
	    5 B(1,3,2)        =     32.159953     0.007877     5.277285    37.437238
	    6 B(2,1,3)        =    115.680094    -0.015754   -10.554571   105.125523
	 ---------------------------------------------------------------------------
	Successfully symmetrized geometry.

  ==> Convergence Check <==

  Measures of convergence in internal coordinates in au.
  Criteria marked as inactive (o), active & met (*), and active & unmet ( ).
  ---------------------------------------------------------------------------------------------
   Step     Total Energy     Delta E     MAX Force     RMS Force      MAX Disp      RMS Disp   
  ---------------------------------------------------------------------------------------------
    Convergence Criteria    1.00e-06 *    3.00e-04 *             o    1.20e-03 *             o
  ---------------------------------------------------------------------------------------------
      2   -1193.86499019   -2.23e-01      3.23e-01      2.31e-01 o    2.89e-01      1.99e-01 o  ~
  ---------------------------------------------------------------------------------------------

	Writing optimization data to binary file.
	Structure for next step:
	Cartesian Geometry (in Angstrom)
	    S     0.0000000000   0.0000000000  -0.7079897984
	    S     0.0000000000  -1.3871489174   0.3539948992
	    S     0.0000000000   1.3871489174   0.3539948992
			--------------------------
			 OPTKING Finished Execution 
			--------------------------

    Structure for next step:
    Molecular point group: c2v
    Full point group: C2v

    Geometry (in Angstrom), charge = -2, multiplicity = 1:

    S       
    S             1          R1
    S             1          R2      2          A1

    A1        =  105.1255230271
    R1        =    1.7469956042
    R2        =    1.7469956042

gradient() will perform analytic gradient computation.

*** tstart() called on c2-5.compute.lan
*** at Fri Jan 29 11:01:01 2021

   => Loading Basis Set <=

    Name: AUG-CC-PVTZ
    Role: ORBITAL
    Keyword: BASIS
    atoms 1-3 entry S          line   906 file /apps/gb/PSI4/1.4.0/share/psi4/basis/aug-cc-pvtz.gbs 


         ---------------------------------------------------------
                                   SCF
               by Justin Turney, Rob Parrish, Andy Simmonett
                          and Daniel G. A. Smith
                              UKS Reference
                        1 Threads,   9536 MiB Core
         ---------------------------------------------------------

  ==> Geometry <==

    Molecular point group: c2v
    Full point group: C2v

    Geometry (in Angstrom), charge = -2, multiplicity = 1:

       Center              X                  Y                   Z               Mass       
    ------------   -----------------  -----------------  -----------------  -----------------
         S            0.000000000000     0.000000000000    -0.707989801217    31.972071174400
         S            0.000000000000    -1.387148922807     0.353994900609    31.972071174400
         S            0.000000000000     1.387148922807     0.353994900609    31.972071174400

  Running in c2v symmetry.

  Rotational constants: A =      0.70126  B =      0.13701  C =      0.11462 [cm^-1]
  Rotational constants: A =  21023.31347  B =   4107.43079  C =   3436.10218 [MHz]
  Nuclear repulsion =  203.918532817205175

  Charge       = -2
  Multiplicity = 1
  Electrons    = 50
  Nalpha       = 25
  Nbeta        = 25

  ==> Algorithm <==

  SCF Algorithm Type is DF.
  DIIS enabled.
  MOM disabled.
  Fractional occupation disabled.
  Guess Type is READ.
  Energy threshold   = 1.00e-08
  Density threshold  = 1.00e-08
  Integral threshold = 0.00e+00

  ==> Primary Basis <==

  Basis Set: AUG-CC-PVTZ
    Blend: AUG-CC-PVTZ
    Number of shells: 48
    Number of basis function: 150
    Number of Cartesian functions: 177
    Spherical Harmonics?: true
    Max angular momentum: 3

  ==> DFT Potential <==

   => Composite Functional: LRC-WPBEH <= 

    LRC-wPBEh Hyb-GGA Exchange-Correlation Functional

    M. A. Rohrdanz, K. M. Martins, and J. M. Herbert, J. Chem. Phys. 130, 054112 (2009)

    Deriv               =              1
    GGA                 =           TRUE
    Meta                =          FALSE

    Exchange Hybrid     =           TRUE
    MP2 Hybrid          =          FALSE

   => Exchange Functionals <=

    0.8000   HJS screened exchange PBE version [omega = 0.2000]

   => Exact (HF) Exchange <=

    0.8000            HF,LR [omega = 0.2000]
    0.2000               HF 

   => Correlation Functionals <=

    1.0000   Perdew, Burke & Ernzerhof

   => Molecular Quadrature <=

    Radial Scheme          =       TREUTLER
    Pruning Scheme         =           NONE
    Nuclear Scheme         =       TREUTLER

    BS radius alpha        =              1
    Pruning alpha          =              1
    Radial Points          =             75
    Spherical Points       =            302
    Total Points           =          65852
    Total Blocks           =            596
    Max Points             =            255
    Max Functions          =            150
    Weights Tolerance      =       1.00E-15

   => Loading Basis Set <=

    Name: (AUG-CC-PVTZ AUX)
    Role: JKFIT
    Keyword: DF_BASIS_SCF
    atoms 1-3 entry S          line   730 file /apps/gb/PSI4/1.4.0/share/psi4/basis/aug-cc-pvtz-jkfit.gbs 

   => Loading Basis Set <=

    Name: AUG-CC-PVTZ
    Role: ORBITAL
    Keyword: BASIS
    atoms 1-3 entry S          line   906 file /apps/gb/PSI4/1.4.0/share/psi4/basis/aug-cc-pvtz.gbs 

  Reading orbitals from file 180, no projection.

  ==> Pre-Iterations <==

   -------------------------------------------------------
    Irrep   Nso     Nmo     Nalpha   Nbeta   Ndocc  Nsocc
   -------------------------------------------------------
     A1        54      54       0       0       0       0
     A2        22      22       0       0       0       0
     B1        29      29       0       0       0       0
     B2        45      45       0       0       0       0
   -------------------------------------------------------
    Total     150     150      25      25      25       0
   -------------------------------------------------------

  ==> Integral Setup <==

  ==> DiskDFJK: Density-Fitted J/K Matrices <==

    J tasked:                  Yes
    K tasked:                  Yes
    wK tasked:                 Yes
    Omega:               2.000E-01
    OpenMP threads:              1
    Integrals threads:           1
    Memory [MiB]:             6881
    Algorithm:                Core
    Integral Cache:           NONE
    Schwarz Cutoff:          1E-12
    Fitting Condition:       1E-10

   => Auxiliary Basis Set <=

  Basis Set: (AUG-CC-PVTZ AUX)
    Blend: AUG-CC-PVTZ-JKFIT
    Number of shells: 126
    Number of basis function: 438
    Number of Cartesian functions: 540
    Spherical Harmonics?: true
    Max angular momentum: 4

  Cached 100.0% of DFT collocation blocks in 0.265 [GiB].

  Minimum eigenvalue in the overlap matrix is 1.1816229811E-04.
  Using Symmetric Orthogonalization.

  SCF Guess: Orbitals guess was supplied from a previous computation.

  ==> Iterations <==

                           Total Energy        Delta E     RMS |[F,P]|

   @DF-UKS iter   0: -1193.99368260045276   -1.19399e+03   1.31712e-02 
   @DF-UKS iter   1: -1194.05487428192168   -6.11917e-02   1.16503e-03 DIIS
   @DF-UKS iter   2: -1194.05868930954261   -3.81503e-03   9.46925e-04 DIIS
   @DF-UKS iter   3: -1194.06189191617614   -3.20261e-03   2.43812e-04 DIIS
   @DF-UKS iter   4: -1194.06228452708820   -3.92611e-04   7.38391e-05 DIIS
   @DF-UKS iter   5: -1194.06250260827210   -2.18081e-04   3.07830e-05 DIIS
   @DF-UKS iter   6: -1194.06254530410433   -4.26958e-05   1.47899e-05 DIIS
   @DF-UKS iter   7: -1194.06255458928695   -9.28518e-06   5.74940e-06 DIIS
   @DF-UKS iter   8: -1194.06255579970889   -1.21042e-06   3.17752e-06 DIIS
   @DF-UKS iter   9: -1194.06255609397999   -2.94271e-07   1.18790e-06 DIIS
   @DF-UKS iter  10: -1194.06255616383805   -6.98581e-08   4.55146e-07 DIIS
   @DF-UKS iter  11: -1194.06255617344914   -9.61109e-09   1.14001e-07 DIIS
   @DF-UKS iter  12: -1194.06255617398847   -5.39330e-10   2.47522e-08 DIIS
   @DF-UKS iter  13: -1194.06255617401212   -2.36469e-11   6.77344e-09 DIIS
  Energy and wave function converged.


  ==> Post-Iterations <==

   @Spin Contamination Metric:   3.552713679E-15
   @S^2 Expected:                0.000000000E+00
   @S^2 Observed:                3.552713679E-15
   @S   Expected:                0.000000000E+00
   @S   Observed:                0.000000000E+00

    Orbital Energies [Eh]
    ---------------------

    Alpha Occupied:                                                       

       1A1   -88.588907     1B2   -88.536024     2A1   -88.536019  
       3A1    -7.682187     2B2    -7.629403     4A1    -7.629395  
       3B2    -5.636272     5A1    -5.631726     1B1    -5.626816  
       6A1    -5.583492     4B2    -5.583483     5B2    -5.576465  
       7A1    -5.576464     1A2    -5.576300     2B1    -5.576298  
       8A1    -0.625361     6B2    -0.441831     9A1    -0.246201  
      10A1    -0.115547     3B1    -0.110523     7B2    -0.105745  
       2A2     0.037355    11A1     0.047638     8B2     0.072728  
       4B1     0.148048  

    Alpha Virtual:                                                        

       9B2     0.275800    12A1     0.277002    13A1     0.316593  
      10B2     0.347048     5B1     0.349633    14A1     0.350101  
       3A2     0.352764    11B2     0.360106     6B1     0.361497  
      15A1     0.412188    16A1     0.449484    12B2     0.461215  
      17A1     0.500019    13B2     0.523686     7B1     0.543978  
      18A1     0.567798     4A2     0.568388    14B2     0.587044  
      19A1     0.606044     8B1     0.618909    20A1     0.623436  
      15B2     0.625018     5A2     0.648712     9B1     0.665624  
      16B2     0.670637    21A1     0.709889     6A2     0.715296  
      22A1     0.730238    17B2     0.731530    10B1     0.799851  
      23A1     0.831289     7A2     0.871487    18B2     0.880704  
      24A1     0.883579    25A1     0.893405    11B1     0.895447  
      19B2     0.897930    26A1     0.906300    12B1     0.925730  
       8A2     0.927776    20B2     0.939847    27A1     0.947315  
      13B1     0.993677    28A1     1.011150    21B2     1.011234  
       9A2     1.030326    22B2     1.076497    29A1     1.077216  
      23B2     1.111867    14B1     1.121270    10A2     1.163119  
      30A1     1.167363    15B1     1.177732    16B1     1.205778  
      31A1     1.220962    11A2     1.229855    24B2     1.234985  
      32A1     1.263752    25B2     1.305422    33A1     1.374573  
      17B1     1.411556    26B2     1.425604    27B2     1.436687  
      12A2     1.438655    34A1     1.467389    13A2     1.472346  
      18B1     1.558142    28B2     1.559937    29B2     1.591529  
      19B1     1.598233    35A1     1.600410    14A2     1.649854  
      36A1     1.682061    37A1     1.730702    30B2     1.777596  
      31B2     1.812643    38A1     1.858279    20B1     2.148690  
      15A2     2.163250    39A1     2.190458    32B2     2.226826  
      21B1     2.229825    40A1     2.232612    41A1     2.279647  
      16A2     2.286007    42A1     2.290188    22B1     2.295462  
      33B2     2.332478    43A1     2.350664    34B2     2.357323  
      17A2     2.368919    44A1     2.396866    23B1     2.405763  
      35B2     2.439300    24B1     2.453987    36B2     2.470401  
      45A1     2.534716    18A2     2.534975    37B2     2.577559  
      25B1     2.588245    26B1     2.597329    19A2     2.604500  
      38B2     2.629964    20A2     2.636040    46A1     2.675859  
      39B2     2.704770    47A1     2.749547    48A1     2.831168  
      27B1     2.834320    21A2     2.835199    28B1     2.935576  
      40B2     2.937359    41B2     2.957419    49A1     3.007594  
      22A2     3.176073    29B1     3.199555    42B2     3.277442  
      50A1     3.288125    51A1     3.393854    43B2     3.488807  
      52A1     3.769531    44B2     4.067394    53A1     5.762481  
      45B2     6.391534    54A1     6.856096  

    Beta Occupied:                                                        

       1A1   -88.588907     1B2   -88.536024     2A1   -88.536019  
       3A1    -7.682187     2B2    -7.629403     4A1    -7.629395  
       3B2    -5.636272     5A1    -5.631726     1B1    -5.626816  
       6A1    -5.583492     4B2    -5.583483     5B2    -5.576465  
       7A1    -5.576464     1A2    -5.576300     2B1    -5.576298  
       8A1    -0.625361     6B2    -0.441831     9A1    -0.246201  
      10A1    -0.115547     3B1    -0.110523     7B2    -0.105745  
       2A2     0.037355    11A1     0.047638     8B2     0.072728  
       4B1     0.148048  

    Beta Virtual:                                                         

       9B2     0.275800    12A1     0.277002    13A1     0.316593  
      10B2     0.347048     5B1     0.349633    14A1     0.350101  
       3A2     0.352764    11B2     0.360106     6B1     0.361497  
      15A1     0.412188    16A1     0.449484    12B2     0.461215  
      17A1     0.500019    13B2     0.523686     7B1     0.543978  
      18A1     0.567798     4A2     0.568388    14B2     0.587044  
      19A1     0.606044     8B1     0.618909    20A1     0.623436  
      15B2     0.625018     5A2     0.648712     9B1     0.665624  
      16B2     0.670637    21A1     0.709889     6A2     0.715296  
      22A1     0.730238    17B2     0.731530    10B1     0.799851  
      23A1     0.831289     7A2     0.871487    18B2     0.880704  
      24A1     0.883579    25A1     0.893405    11B1     0.895447  
      19B2     0.897930    26A1     0.906300    12B1     0.925730  
       8A2     0.927776    20B2     0.939847    27A1     0.947315  
      13B1     0.993677    28A1     1.011150    21B2     1.011234  
       9A2     1.030326    22B2     1.076497    29A1     1.077216  
      23B2     1.111867    14B1     1.121270    10A2     1.163119  
      30A1     1.167363    15B1     1.177732    16B1     1.205778  
      31A1     1.220962    11A2     1.229855    24B2     1.234985  
      32A1     1.263752    25B2     1.305422    33A1     1.374573  
      17B1     1.411556    26B2     1.425604    27B2     1.436687  
      12A2     1.438655    34A1     1.467389    13A2     1.472346  
      18B1     1.558142    28B2     1.559937    29B2     1.591529  
      19B1     1.598233    35A1     1.600410    14A2     1.649854  
      36A1     1.682061    37A1     1.730702    30B2     1.777596  
      31B2     1.812643    38A1     1.858279    20B1     2.148690  
      15A2     2.163250    39A1     2.190458    32B2     2.226826  
      21B1     2.229825    40A1     2.232612    41A1     2.279647  
      16A2     2.286007    42A1     2.290188    22B1     2.295462  
      33B2     2.332478    43A1     2.350664    34B2     2.357323  
      17A2     2.368919    44A1     2.396866    23B1     2.405763  
      35B2     2.439300    24B1     2.453987    36B2     2.470401  
      45A1     2.534716    18A2     2.534975    37B2     2.577559  
      25B1     2.588245    26B1     2.597329    19A2     2.604500  
      38B2     2.629964    20A2     2.636040    46A1     2.675859  
      39B2     2.704770    47A1     2.749547    48A1     2.831168  
      27B1     2.834320    21A2     2.835199    28B1     2.935576  
      40B2     2.937359    41B2     2.957419    49A1     3.007594  
      22A2     3.176073    29B1     3.199555    42B2     3.277442  
      50A1     3.288125    51A1     3.393854    43B2     3.488807  
      52A1     3.769531    44B2     4.067394    53A1     5.762481  
      45B2     6.391534    54A1     6.856096  

    Final Occupation by Irrep:
             A1    A2    B1    B2 
    DOCC [    11,    2,    4,    8 ]
    SOCC [     0,    0,    0,    0 ]

  @DF-UKS Final Energy: -1194.06255617401212

   => Energetics <=

    Nuclear Repulsion Energy =            203.9185328172051754
    One-Electron Energy =               -2075.7056747937135697
    Two-Electron Energy =                 735.5096970474475029
    DFT Exchange-Correlation Energy =     -57.7851112449510325
    Empirical Dispersion Energy =           0.0000000000000000
    VV10 Nonlocal Energy =                  0.0000000000000000
    Total Energy =                      -1194.0625561740118883

  UHF NO Occupations:
  HONO-2 :    8 B2 2.0000000
  HONO-1 :   11 A1 2.0000000
  HONO-0 :    4 B1 2.0000000
  LUNO+0 :    9 B2 0.0000000
  LUNO+1 :   10 B2 0.0000000
  LUNO+2 :    5 B1 0.0000000
  LUNO+3 :   12 A1 0.0000000


Computation Completed


Properties will be evaluated at   0.000000,   0.000000,   0.000000 [a0]

Properties computed using the SCF density matrix

  Nuclear Dipole Moment: [e a0]
     X:     0.0000      Y:     0.0000      Z:     0.0000

  Electronic Dipole Moment: [e a0]
     X:     0.0000      Y:     0.0000      Z:    -0.8692

  Dipole Moment: [e a0]
     X:     0.0000      Y:     0.0000      Z:    -0.8692     Total:     0.8692

  Dipole Moment: [D]
     X:     0.0000      Y:     0.0000      Z:    -2.2093     Total:     2.2093


*** tstop() called on c2-5.compute.lan at Fri Jan 29 11:01:26 2021
Module time:
	user time   =      24.37 seconds =       0.41 minutes
	system time =       0.14 seconds =       0.00 minutes
	total time  =         25 seconds =       0.42 minutes
Total time:
	user time   =     102.33 seconds =       1.71 minutes
	system time =       1.03 seconds =       0.02 minutes
	total time  =        104 seconds =       1.73 minutes

*** tstart() called on c2-5.compute.lan
*** at Fri Jan 29 11:01:26 2021


         ------------------------------------------------------------
                                   SCF GRAD                          
                          Rob Parrish, Justin Turney,                
                       Andy Simmonett, and Alex Sokolov              
         ------------------------------------------------------------

  ==> Geometry <==

    Molecular point group: c2v
    Full point group: C2v

    Geometry (in Angstrom), charge = -2, multiplicity = 1:

       Center              X                  Y                   Z               Mass       
    ------------   -----------------  -----------------  -----------------  -----------------
         S            0.000000000000     0.000000000000    -0.707989801217    31.972071174400
         S            0.000000000000    -1.387148922807     0.353994900609    31.972071174400
         S            0.000000000000     1.387148922807     0.353994900609    31.972071174400

  Nuclear repulsion =  203.918532817205175

  ==> Basis Set <==

  Basis Set: AUG-CC-PVTZ
    Blend: AUG-CC-PVTZ
    Number of shells: 48
    Number of basis function: 150
    Number of Cartesian functions: 177
    Spherical Harmonics?: true
    Max angular momentum: 3

  ==> DFJKGrad: Density-Fitted SCF Gradients <==

    Gradient:                    1
    J tasked:                  Yes
    K tasked:                  Yes
    wK tasked:                 Yes
    Omega:               2.000E-01
    OpenMP threads:              1
    Integrals threads:           1
    Memory [MiB]:             7152
    Schwarz Cutoff:          0E+00
    Fitting Condition:       1E-10

   => Auxiliary Basis Set <=

  Basis Set: (AUG-CC-PVTZ AUX)
    Blend: AUG-CC-PVTZ-JKFIT
    Number of shells: 126
    Number of basis function: 438
    Number of Cartesian functions: 540
    Spherical Harmonics?: true
    Max angular momentum: 4

  ==> DFT Potential <==

   => Composite Functional: LRC-WPBEH <= 

    LRC-wPBEh Hyb-GGA Exchange-Correlation Functional

    M. A. Rohrdanz, K. M. Martins, and J. M. Herbert, J. Chem. Phys. 130, 054112 (2009)

    Deriv               =              1
    GGA                 =           TRUE
    Meta                =          FALSE

    Exchange Hybrid     =           TRUE
    MP2 Hybrid          =          FALSE

   => Exchange Functionals <=

    0.8000   HJS screened exchange PBE version [omega = 0.2000]

   => Exact (HF) Exchange <=

    0.8000            HF,LR [omega = 0.2000]
    0.2000               HF 

   => Correlation Functionals <=

    1.0000   Perdew, Burke & Ernzerhof

   => Molecular Quadrature <=

    Radial Scheme          =       TREUTLER
    Pruning Scheme         =           NONE
    Nuclear Scheme         =       TREUTLER

    BS radius alpha        =              1
    Pruning alpha          =              1
    Radial Points          =             75
    Spherical Points       =            302
    Total Points           =          65852
    Total Blocks           =            596
    Max Points             =            255
    Max Functions          =            150
    Weights Tolerance      =       1.00E-15


  -Total Gradient:
     Atom            X                  Y                   Z
    ------   -----------------  -----------------  -----------------
       1       -0.000000000000     0.000000000000     0.257985543957
       2       -0.000000000000     0.203635512968    -0.129006979995
       3        0.000000000000    -0.203635512968    -0.129006979995


*** tstop() called on c2-5.compute.lan at Fri Jan 29 11:01:37 2021
Module time:
	user time   =      11.20 seconds =       0.19 minutes
	system time =       0.12 seconds =       0.00 minutes
	total time  =         11 seconds =       0.18 minutes
Total time:
	user time   =     113.53 seconds =       1.89 minutes
	system time =       1.15 seconds =       0.02 minutes
	total time  =        115 seconds =       1.92 minutes

			-----------------------------------------
			 OPTKING 2.0: for geometry optimizations 
			  - R.A. King,  Bethel University        
			-----------------------------------------

	Previous internal coordinate definitions found.
	---Fragment 1 Geometry and Gradient---
	 S           0.0000000000        0.0000000000       -1.3379068239
	 S           0.0000000000       -2.6213315593        0.6689534120
	 S           0.0000000000        2.6213315593        0.6689534120
	            -0.0000000000        0.0000000000        0.2579855440
	            -0.0000000000        0.2036355130       -0.1290069800
	             0.0000000000       -0.2036355130       -0.1290069800

	---Fragment 1 Intrafragment Coordinates---
	 - Coordinate -           - BOHR/RAD -       - ANG/DEG -
	 R(1,2)           =         3.301343	       1.746996
	 R(1,3)           =         3.301343	       1.746996
	 R(2,3)           =         5.242663	       2.774298
	 B(1,2,3)         =         0.653403	      37.437238
	 B(1,3,2)         =         0.653403	      37.437238
	 B(2,1,3)         =         1.834787	     105.125523

	Current energy   :     -1194.0625561740

	Energy change for the previous step:
		Projected    :        -0.2444808760
		Actual       :        -0.1975659881

	Performing BFGS update.
	Previous computed or guess Hessian on step 1.
	Steps to be used in Hessian update: 2 1
	Taking RFO optimization step.
	Going to follow RFO solution 1.
	Using RFO vector 1.
	Norm of target step-size    0.33937
	Projected energy change by RFO approximation:        -0.0908175326

	Back-transformation to cartesian coordinates...
	Successfully converged to displaced geometry.

	--- Internal Coordinate Step in ANG or DEG, aJ/ANG or AJ/DEG ---
	 ---------------------------------------------------------------------------
	   Coordinate                Previous        Force       Change         New 
	   ----------                --------       ------       ------       ------
	    1 R(1,2)          =      1.746996     1.349056     0.110890     1.857886
	    2 R(1,3)          =      1.746996     1.349056     0.110890     1.857886
	    3 R(2,3)          =      2.774298     0.792323     0.056098     2.830396
	    4 B(1,2,3)        =     37.437238     0.003107     2.946249    40.383488
	    5 B(1,3,2)        =     37.437238     0.003107     2.946249    40.383488
	    6 B(2,1,3)        =    105.125523    -0.006213    -5.892498    99.233025
	 ---------------------------------------------------------------------------
	Successfully symmetrized geometry.

  ==> Convergence Check <==

  Measures of convergence in internal coordinates in au.
  Criteria marked as inactive (o), active & met (*), and active & unmet ( ).
  ---------------------------------------------------------------------------------------------
   Step     Total Energy     Delta E     MAX Force     RMS Force      MAX Disp      RMS Disp   
  ---------------------------------------------------------------------------------------------
    Convergence Criteria    1.00e-06 *    3.00e-04 *             o    1.20e-03 *             o
  ---------------------------------------------------------------------------------------------
      3   -1194.06255617   -1.98e-01      1.64e-01      1.10e-01 o    2.10e-01      1.38e-01 o  ~
  ---------------------------------------------------------------------------------------------

	Writing optimization data to binary file.
	Structure for next step:
	Cartesian Geometry (in Angstrom)
	    S     0.0000000000   0.0000000000  -0.8024832886
	    S     0.0000000000  -1.4151981519   0.4012416443
	    S     0.0000000000   1.4151981519   0.4012416443
			--------------------------
			 OPTKING Finished Execution 
			--------------------------

    Structure for next step:
    Molecular point group: c2v
    Full point group: C2v

    Geometry (in Angstrom), charge = -2, multiplicity = 1:

    S       
    S             1          R1
    S             1          R2      2          A1

    A1        =   99.2330249986
    R1        =    1.8578857743
    R2        =    1.8578857743

gradient() will perform analytic gradient computation.

*** tstart() called on c2-5.compute.lan
*** at Fri Jan 29 11:01:37 2021

   => Loading Basis Set <=

    Name: AUG-CC-PVTZ
    Role: ORBITAL
    Keyword: BASIS
    atoms 1-3 entry S          line   906 file /apps/gb/PSI4/1.4.0/share/psi4/basis/aug-cc-pvtz.gbs 


         ---------------------------------------------------------
                                   SCF
               by Justin Turney, Rob Parrish, Andy Simmonett
                          and Daniel G. A. Smith
                              UKS Reference
                        1 Threads,   9536 MiB Core
         ---------------------------------------------------------

  ==> Geometry <==

    Molecular point group: c2v
    Full point group: C2v

    Geometry (in Angstrom), charge = -2, multiplicity = 1:

       Center              X                  Y                   Z               Mass       
    ------------   -----------------  -----------------  -----------------  -----------------
         S            0.000000000000     0.000000000000    -0.802483291791    31.972071174400
         S            0.000000000000    -1.415198157429     0.401241645895    31.972071174400
         S            0.000000000000     1.415198157429     0.401241645895    31.972071174400

  Running in c2v symmetry.

  Rotational constants: A =      0.54584  B =      0.13163  C =      0.10606 [cm^-1]
  Rotational constants: A =  16363.76264  B =   3946.22573  C =   3179.47504 [MHz]
  Nuclear repulsion =  193.694080203652561

  Charge       = -2
  Multiplicity = 1
  Electrons    = 50
  Nalpha       = 25
  Nbeta        = 25

  ==> Algorithm <==

  SCF Algorithm Type is DF.
  DIIS enabled.
  MOM disabled.
  Fractional occupation disabled.
  Guess Type is READ.
  Energy threshold   = 1.00e-08
  Density threshold  = 1.00e-08
  Integral threshold = 0.00e+00

  ==> Primary Basis <==

  Basis Set: AUG-CC-PVTZ
    Blend: AUG-CC-PVTZ
    Number of shells: 48
    Number of basis function: 150
    Number of Cartesian functions: 177
    Spherical Harmonics?: true
    Max angular momentum: 3

  ==> DFT Potential <==

   => Composite Functional: LRC-WPBEH <= 

    LRC-wPBEh Hyb-GGA Exchange-Correlation Functional

    M. A. Rohrdanz, K. M. Martins, and J. M. Herbert, J. Chem. Phys. 130, 054112 (2009)

    Deriv               =              1
    GGA                 =           TRUE
    Meta                =          FALSE

    Exchange Hybrid     =           TRUE
    MP2 Hybrid          =          FALSE

   => Exchange Functionals <=

    0.8000   HJS screened exchange PBE version [omega = 0.2000]

   => Exact (HF) Exchange <=

    0.8000            HF,LR [omega = 0.2000]
    0.2000               HF 

   => Correlation Functionals <=

    1.0000   Perdew, Burke & Ernzerhof

   => Molecular Quadrature <=

    Radial Scheme          =       TREUTLER
    Pruning Scheme         =           NONE
    Nuclear Scheme         =       TREUTLER

    BS radius alpha        =              1
    Pruning alpha          =              1
    Radial Points          =             75
    Spherical Points       =            302
    Total Points           =          65922
    Total Blocks           =            596
    Max Points             =            256
    Max Functions          =            150
    Weights Tolerance      =       1.00E-15

   => Loading Basis Set <=

    Name: (AUG-CC-PVTZ AUX)
    Role: JKFIT
    Keyword: DF_BASIS_SCF
    atoms 1-3 entry S          line   730 file /apps/gb/PSI4/1.4.0/share/psi4/basis/aug-cc-pvtz-jkfit.gbs 

   => Loading Basis Set <=

    Name: AUG-CC-PVTZ
    Role: ORBITAL
    Keyword: BASIS
    atoms 1-3 entry S          line   906 file /apps/gb/PSI4/1.4.0/share/psi4/basis/aug-cc-pvtz.gbs 

  Reading orbitals from file 180, no projection.

  ==> Pre-Iterations <==

   -------------------------------------------------------
    Irrep   Nso     Nmo     Nalpha   Nbeta   Ndocc  Nsocc
   -------------------------------------------------------
     A1        54      54       0       0       0       0
     A2        22      22       0       0       0       0
     B1        29      29       0       0       0       0
     B2        45      45       0       0       0       0
   -------------------------------------------------------
    Total     150     150      25      25      25       0
   -------------------------------------------------------

  ==> Integral Setup <==

  ==> DiskDFJK: Density-Fitted J/K Matrices <==

    J tasked:                  Yes
    K tasked:                  Yes
    wK tasked:                 Yes
    Omega:               2.000E-01
    OpenMP threads:              1
    Integrals threads:           1
    Memory [MiB]:             6881
    Algorithm:                Core
    Integral Cache:           NONE
    Schwarz Cutoff:          1E-12
    Fitting Condition:       1E-10

   => Auxiliary Basis Set <=

  Basis Set: (AUG-CC-PVTZ AUX)
    Blend: AUG-CC-PVTZ-JKFIT
    Number of shells: 126
    Number of basis function: 438
    Number of Cartesian functions: 540
    Spherical Harmonics?: true
    Max angular momentum: 4

  Cached 100.0% of DFT collocation blocks in 0.265 [GiB].

  Minimum eigenvalue in the overlap matrix is 1.6044394024E-04.
  Using Symmetric Orthogonalization.

  SCF Guess: Orbitals guess was supplied from a previous computation.

  ==> Iterations <==

                           Total Energy        Delta E     RMS |[F,P]|

   @DF-UKS iter   0: -1194.07183823156060   -1.19407e+03   6.71461e-03 
   @DF-UKS iter   1: -1194.12740872473842   -5.55705e-02   6.23047e-04 DIIS
   @DF-UKS iter   2: -1194.12926956782121   -1.86084e-03   3.48793e-04 DIIS
   @DF-UKS iter   3: -1194.12966987295295   -4.00305e-04   1.08146e-04 DIIS
   @DF-UKS iter   4: -1194.12975383077560   -8.39578e-05   4.73534e-05 DIIS
   @DF-UKS iter   5: -1194.12980023383830   -4.64031e-05   1.35712e-05 DIIS
   @DF-UKS iter   6: -1194.12980839255874   -8.15872e-06   6.18690e-06 DIIS
   @DF-UKS iter   7: -1194.12980992559369   -1.53303e-06   2.81433e-06 DIIS
   @DF-UKS iter   8: -1194.12981010588260   -1.80289e-07   1.13121e-06 DIIS
   @DF-UKS iter   9: -1194.12981013768331   -3.18007e-08   4.58055e-07 DIIS
[...]
   @DF-UKS iter   6: -1194.18541339962735   -3.54476e-10   5.78056e-08 DIIS
   @DF-UKS iter   7: -1194.18541339971239   -8.50378e-11   1.85330e-08 DIIS
   @DF-UKS iter   8: -1194.18541339972126   -8.86757e-12   5.05955e-09 DIIS
  Energy and wave function converged.


  ==> Post-Iterations <==

   @Spin Contamination Metric:  -3.552713679E-14
   @S^2 Expected:                0.000000000E+00
   @S^2 Observed:               -3.552713679E-14
   @S   Expected:                0.000000000E+00
   @S   Observed:                0.000000000E+00

    Orbital Energies [Eh]
    ---------------------

    Alpha Occupied:                                                       

       1A1   -88.619769     1B2   -88.561458     2A1   -88.561455  
       3A1    -7.698503     2B2    -7.644144     4A1    -7.644140  
       3B2    -5.653568     5A1    -5.650016     1B1    -5.642891  
       6A1    -5.599971     4B2    -5.599971     7A1    -5.591838  
       5B2    -5.591838     2B1    -5.590997     1A2    -5.590997  
       8A1    -0.508976     6B2    -0.394619     9A1    -0.285300  
       7B2    -0.087078    10A1    -0.065484     3B1    -0.049027  
       2A2     0.039333    11A1     0.047096     8B2     0.053151  
       4B1     0.104690  

    Alpha Virtual:                                                        

       9B2     0.273635    12A1     0.277675    13A1     0.322369  
      14A1     0.348946    10B2     0.349328     5B1     0.349988  
       3A2     0.357302     6B1     0.364043    11B2     0.365626  
      15A1     0.392147    16A1     0.413953    12B2     0.420936  
      17A1     0.483412    13B2     0.492686     7B1     0.536791  
       4A2     0.557505    18A1     0.558108    14B2     0.590768  
      19A1     0.597546    15B2     0.601367     8B1     0.616044  
      20A1     0.618198     5A2     0.631218     9B1     0.661613  
      16B2     0.667367    21A1     0.667834    17B2     0.691470  
       6A2     0.707689    22A1     0.733975    10B1     0.810798  
      23A1     0.835519    24A1     0.882287     7A2     0.886454  
      25A1     0.900485    18B2     0.902020    19B2     0.911610  
       8A2     0.915333    11B1     0.922666    26A1     0.925429  
      12B1     0.934654    20B2     0.941205    27A1     0.970068  
      13B1     0.994260    21B2     0.997585    28A1     1.002112  
       9A2     1.017735    22B2     1.021841    29A1     1.035298  
      23B2     1.048477    14B1     1.063065    30A1     1.104068  
      10A2     1.107433    15B1     1.107993    31A1     1.154301  
      24B2     1.158751    16B1     1.161792    11A2     1.164479  
      32A1     1.179683    25B2     1.207044    33A1     1.227741  
      26B2     1.301668    12A2     1.328390    17B1     1.347601  
      34A1     1.381537    13A2     1.396431    27B2     1.397428  
      35A1     1.477302    18B1     1.483499    28B2     1.506439  
      29B2     1.526656    36A1     1.558132    19B1     1.568174  
      14A2     1.577724    30B2     1.664249    37A1     1.664662  
      31B2     1.764820    38A1     1.879840    39A1     2.192336  
      20B1     2.204513    15A2     2.216034    32B2     2.232638  
      40A1     2.256777    16A2     2.261365    21B1     2.268092  
      41A1     2.276807    33B2     2.279539    42A1     2.344282  
      22B1     2.351518    34B2     2.370246    23B1     2.405736  
      17A2     2.405792    43A1     2.406103    35B2     2.406628  
      18A2     2.421859    36B2     2.441313    44A1     2.467428  
      24B1     2.470185    25B1     2.488461    45A1     2.523018  
      37B2     2.528070    26B1     2.554651    46A1     2.562589  
      19A2     2.567836    38B2     2.578961    20A2     2.642591  
      47A1     2.648908    21A2     2.649065    27B1     2.658370  
      48A1     2.661526    39B2     2.662703    28B1     2.708258  
      40B2     2.751015    49A1     2.771440    41B2     2.813564  
      50A1     2.830663    42B2     2.833106    51A1     2.927920  
      22A2     2.939570    29B1     2.939973    43B2     3.030892  
      52A1     3.979166    44B2     4.009317    53A1     4.981363  
      45B2     5.526690    54A1     6.019592  

    Beta Occupied:                                                        

       1A1   -88.619769     1B2   -88.561458     2A1   -88.561455  
       3A1    -7.698503     2B2    -7.644144     4A1    -7.644140  
       3B2    -5.653568     5A1    -5.650016     1B1    -5.642891  
       6A1    -5.599971     4B2    -5.599971     7A1    -5.591838  
       5B2    -5.591838     2B1    -5.590997     1A2    -5.590997  
       8A1    -0.508976     6B2    -0.394619     9A1    -0.285300  
       7B2    -0.087078    10A1    -0.065484     3B1    -0.049027  
       2A2     0.039333    11A1     0.047096     8B2     0.053151  
       4B1     0.104690  

    Beta Virtual:                                                         

       9B2     0.273635    12A1     0.277675    13A1     0.322369  
      14A1     0.348946    10B2     0.349328     5B1     0.349988  
       3A2     0.357302     6B1     0.364043    11B2     0.365626  
      15A1     0.392147    16A1     0.413953    12B2     0.420936  
      17A1     0.483412    13B2     0.492686     7B1     0.536791  
       4A2     0.557505    18A1     0.558108    14B2     0.590768  
      19A1     0.597546    15B2     0.601367     8B1     0.616044  
      20A1     0.618198     5A2     0.631218     9B1     0.661613  
      16B2     0.667367    21A1     0.667834    17B2     0.691470  
       6A2     0.707689    22A1     0.733975    10B1     0.810798  
      23A1     0.835519    24A1     0.882287     7A2     0.886454  
      25A1     0.900485    18B2     0.902020    19B2     0.911610  
       8A2     0.915333    11B1     0.922666    26A1     0.925429  
      12B1     0.934654    20B2     0.941205    27A1     0.970068  
      13B1     0.994260    21B2     0.997585    28A1     1.002112  
       9A2     1.017735    22B2     1.021841    29A1     1.035298  
      23B2     1.048477    14B1     1.063065    30A1     1.104068  
      10A2     1.107433    15B1     1.107993    31A1     1.154301  
      24B2     1.158751    16B1     1.161792    11A2     1.164479  
      32A1     1.179683    25B2     1.207044    33A1     1.227741  
      26B2     1.301668    12A2     1.328390    17B1     1.347601  
      34A1     1.381537    13A2     1.396431    27B2     1.397428  
      35A1     1.477302    18B1     1.483499    28B2     1.506439  
      29B2     1.526656    36A1     1.558132    19B1     1.568174  
      14A2     1.577724    30B2     1.664249    37A1     1.664662  
      31B2     1.764820    38A1     1.879840    39A1     2.192336  
      20B1     2.204513    15A2     2.216034    32B2     2.232638  
      40A1     2.256777    16A2     2.261365    21B1     2.268092  
      41A1     2.276807    33B2     2.279539    42A1     2.344282  
      22B1     2.351518    34B2     2.370246    23B1     2.405736  
      17A2     2.405792    43A1     2.406103    35B2     2.406628  
      18A2     2.421859    36B2     2.441313    44A1     2.467428  
      24B1     2.470185    25B1     2.488461    45A1     2.523018  
      37B2     2.528070    26B1     2.554651    46A1     2.562589  
      19A2     2.567836    38B2     2.578961    20A2     2.642591  
      47A1     2.648908    21A2     2.649065    27B1     2.658370  
      48A1     2.661526    39B2     2.662703    28B1     2.708258  
      40B2     2.751015    49A1     2.771440    41B2     2.813564  
      50A1     2.830663    42B2     2.833106    51A1     2.927920  
      22A2     2.939570    29B1     2.939973    43B2     3.030892  
      52A1     3.979166    44B2     4.009317    53A1     4.981363  
      45B2     5.526690    54A1     6.019592  

    Final Occupation by Irrep:
             A1    A2    B1    B2 
    DOCC [    11,    2,    4,    8 ]
    SOCC [     0,    0,    0,    0 ]

  @DF-UKS Final Energy: -1194.18541339972126

   => Energetics <=

    Nuclear Repulsion Energy =            168.2204938289519305
    One-Electron Energy =               -2004.5476698347808906
    Two-Electron Energy =                 699.7008324856211630
    DFT Exchange-Correlation Energy =     -57.5590698795135012
    Empirical Dispersion Energy =           0.0000000000000000
    VV10 Nonlocal Energy =                  0.0000000000000000
    Total Energy =                      -1194.1854133997212557

  UHF NO Occupations:
  HONO-2 :    8 B2 2.0000000
  HONO-1 :   10 A1 2.0000000
  HONO-0 :   11 A1 2.0000000
  LUNO+0 :   12 A1 0.0000000
  LUNO+1 :   13 A1 0.0000000
  LUNO+2 :    9 B2 0.0000000
  LUNO+3 :   14 A1 0.0000000


Computation Completed


Properties will be evaluated at   0.000000,   0.000000,   0.000000 [a0]

Properties computed using the SCF density matrix

  Nuclear Dipole Moment: [e a0]
     X:     0.0000      Y:     0.0000      Z:     0.0000

  Electronic Dipole Moment: [e a0]
     X:     0.0000      Y:     0.0000      Z:    -0.7101

  Dipole Moment: [e a0]
     X:     0.0000      Y:     0.0000      Z:    -0.7101     Total:     0.7101

  Dipole Moment: [D]
     X:     0.0000      Y:     0.0000      Z:    -1.8048     Total:     1.8048


*** tstop() called on c2-5.compute.lan at Fri Jan 29 11:06:17 2021
Module time:
	user time   =      16.67 seconds =       0.28 minutes
	system time =       0.10 seconds =       0.00 minutes
	total time  =         17 seconds =       0.28 minutes
Total time:
	user time   =     390.60 seconds =       6.51 minutes
	system time =       3.52 seconds =       0.06 minutes
	total time  =        395 seconds =       6.58 minutes

*** tstart() called on c2-5.compute.lan
*** at Fri Jan 29 11:06:17 2021


         ------------------------------------------------------------
                                   SCF GRAD                          
                          Rob Parrish, Justin Turney,                
                       Andy Simmonett, and Alex Sokolov              
         ------------------------------------------------------------

  ==> Geometry <==

    Molecular point group: c2v
    Full point group: C2v

    Geometry (in Angstrom), charge = -2, multiplicity = 1:

       Center              X                  Y                   Z               Mass       
    ------------   -----------------  -----------------  -----------------  -----------------
         S            0.000000000000     0.000000000000    -0.771752291967    31.972071174400
         S            0.000000000000    -1.744725390929     0.385876145984    31.972071174400
         S            0.000000000000     1.744725390929     0.385876145984    31.972071174400

  Nuclear repulsion =  168.220493828951930

  ==> Basis Set <==

  Basis Set: AUG-CC-PVTZ
    Blend: AUG-CC-PVTZ
    Number of shells: 48
    Number of basis function: 150
    Number of Cartesian functions: 177
    Spherical Harmonics?: true
    Max angular momentum: 3

  ==> DFJKGrad: Density-Fitted SCF Gradients <==

    Gradient:                    1
    J tasked:                  Yes
    K tasked:                  Yes
    wK tasked:                 Yes
    Omega:               2.000E-01
    OpenMP threads:              1
    Integrals threads:           1
    Memory [MiB]:             7152
    Schwarz Cutoff:          0E+00
    Fitting Condition:       1E-10

   => Auxiliary Basis Set <=

  Basis Set: (AUG-CC-PVTZ AUX)
    Blend: AUG-CC-PVTZ-JKFIT
    Number of shells: 126
    Number of basis function: 438
    Number of Cartesian functions: 540
    Spherical Harmonics?: true
    Max angular momentum: 4

  ==> DFT Potential <==

   => Composite Functional: LRC-WPBEH <= 

    LRC-wPBEh Hyb-GGA Exchange-Correlation Functional

    M. A. Rohrdanz, K. M. Martins, and J. M. Herbert, J. Chem. Phys. 130, 054112 (2009)

    Deriv               =              1
    GGA                 =           TRUE
    Meta                =          FALSE

    Exchange Hybrid     =           TRUE
    MP2 Hybrid          =          FALSE

   => Exchange Functionals <=

    0.8000   HJS screened exchange PBE version [omega = 0.2000]

   => Exact (HF) Exchange <=

    0.8000            HF,LR [omega = 0.2000]
    0.2000               HF 

   => Correlation Functionals <=

    1.0000   Perdew, Burke & Ernzerhof

   => Molecular Quadrature <=

    Radial Scheme          =       TREUTLER
    Pruning Scheme         =           NONE
    Nuclear Scheme         =       TREUTLER

    BS radius alpha        =              1
    Pruning alpha          =              1
    Radial Points          =             75
    Spherical Points       =            302
    Total Points           =          65884
    Total Blocks           =            600
    Max Points             =            255
    Max Functions          =            150
    Weights Tolerance      =       1.00E-15


  -Total Gradient:
     Atom            X                  Y                   Z
    ------   -----------------  -----------------  -----------------
       1        0.000000000000     0.000000000000    -0.000032380565
       2        0.000000000000    -0.000032067998     0.000012611915
       3       -0.000000000000     0.000032067998     0.000012611915


*** tstop() called on c2-5.compute.lan at Fri Jan 29 11:06:29 2021
Module time:
	user time   =      11.38 seconds =       0.19 minutes
	system time =       0.12 seconds =       0.00 minutes
	total time  =         12 seconds =       0.20 minutes
Total time:
	user time   =     401.98 seconds =       6.70 minutes
	system time =       3.64 seconds =       0.06 minutes
	total time  =        407 seconds =       6.78 minutes

			-----------------------------------------
			 OPTKING 2.0: for geometry optimizations 
			  - R.A. King,  Bethel University        
			-----------------------------------------

	Previous internal coordinate definitions found.
	---Fragment 1 Geometry and Gradient---
	 S           0.0000000000        0.0000000000       -1.4584004685
	 S           0.0000000000       -3.2970531530        0.7292002343
	 S           0.0000000000        3.2970531530        0.7292002343
	             0.0000000000        0.0000000000       -0.0000323806
	             0.0000000000       -0.0000320680        0.0000126119
	            -0.0000000000        0.0000320680        0.0000126119

	---Fragment 1 Intrafragment Coordinates---
	 - Coordinate -           - BOHR/RAD -       - ANG/DEG -
	 R(1,2)           =         3.956786	       2.093841
	 R(1,3)           =         3.956786	       2.093841
	 R(2,3)           =         6.594106	       3.489451
	 B(1,2,3)         =         0.585808	      33.564346
	 B(1,3,2)         =         0.585808	      33.564346
	 B(2,1,3)         =         1.969976	     112.871309

	Current energy   :     -1194.1854133997

	Energy change for the previous step:
		Projected    :        -0.0000030565
		Actual       :        -0.0000009686

	Performing BFGS update.
	Previous computed or guess Hessian on step 1.
	Steps to be used in Hessian update: 11 10
	Taking RFO optimization step.
	Going to follow RFO solution 1.
	Using RFO vector 1.
	Norm of target step-size    0.00066
	Projected energy change by RFO approximation:        -0.0000000270

	Back-transformation to cartesian coordinates...
	Successfully converged to displaced geometry.

	--- Internal Coordinate Step in ANG or DEG, aJ/ANG or AJ/DEG ---
	 ---------------------------------------------------------------------------
	   Coordinate                Previous        Force       Change         New 
	   ----------                --------       ------       ------       ------
	    1 R(1,2)          =      2.093841    -0.000180    -0.000118     2.093723
	    2 R(1,3)          =      2.093841    -0.000180    -0.000118     2.093723
	    3 R(2,3)          =      3.489451    -0.000131    -0.000304     3.489147
	    4 B(1,2,3)        =     33.564346    -0.000000     0.002670    33.567015
	    5 B(1,3,2)        =     33.564346    -0.000000     0.002670    33.567015
	    6 B(2,1,3)        =    112.871309     0.000001    -0.005339   112.865970
	 ---------------------------------------------------------------------------
	Successfully symmetrized geometry.

  ==> Convergence Check <==

  Measures of convergence in internal coordinates in au.
  Criteria marked as inactive (o), active & met (*), and active & unmet ( ).
  ---------------------------------------------------------------------------------------------
   Step     Total Energy     Delta E     MAX Force     RMS Force      MAX Disp      RMS Disp   
  ---------------------------------------------------------------------------------------------
    Convergence Criteria    1.00e-06 *    3.00e-04 *             o    1.20e-03 *             o
  ---------------------------------------------------------------------------------------------
     12   -1194.18541340   -9.69e-07 *    2.18e-05 *    1.49e-05 o    5.74e-04 *    2.71e-04 o  ~
  ---------------------------------------------------------------------------------------------


  **** Optimization is complete! (in 12 steps) ****

  ==> Optimization Summary <==

  Measures of convergence in internal coordinates in au.
  --------------------------------------------------------------------------------------------------------------- ~
   Step         Total Energy             Delta E       MAX Force       RMS Force        MAX Disp        RMS Disp  ~
  --------------------------------------------------------------------------------------------------------------- ~
      1   -1193.641734129591  -1193.641734129591      0.46965448      0.34746139      0.19101172      0.13438886  ~
      2   -1193.864990185906     -0.223256056316      0.32300910      0.23063327      0.28877969      0.19910307  ~
      3   -1194.062556174012     -0.197565988106      0.16374584      0.11020796      0.20955205      0.13840013  ~
      4   -1194.129810142659     -0.067253968647      0.08341770      0.05588234      0.17372348      0.11222087  ~
      5   -1194.157417633617     -0.027607490958      0.04192833      0.02973170      0.25037870      0.12452228  ~
      6   -1194.172594847456     -0.015177213840      0.02663927      0.01480797      0.29123176      0.13379576  ~
      7   -1194.180732620754     -0.008137773298      0.01529087      0.00693362      0.31426404      0.14108047  ~
      8   -1194.184595763804     -0.003863143050      0.00565960      0.00313835      0.17275566      0.07765630  ~
      9   -1194.185335406155     -0.000739642351      0.00207556      0.00161618      0.03703687      0.01743540  ~
     10   -1194.185399011650     -0.000063605494      0.00120057      0.00084182      0.00771198      0.00535162  ~
     11   -1194.185412431158     -0.000013419508      0.00036802      0.00024764      0.00252844      0.00171264  ~
     12   -1194.185413399721     -0.000000968564      0.00002179      0.00001490      0.00057405      0.00027119  ~
  --------------------------------------------------------------------------------------------------------------- ~

	Writing optimization data to binary file.
	Final energy is  -1194.1854133997213
	Final (previous) structure:
	Cartesian Geometry (in Angstrom)
	    S     0.0000000000   0.0000000000  -0.7717522889
	    S     0.0000000000  -1.7447253841   0.3858761445
	    S     0.0000000000   1.7447253841   0.3858761445
	Saving final (previous) structure.
			--------------------------
			 OPTKING Finished Execution 
			--------------------------

    Final optimized geometry and variables:
    Molecular point group: c2v
    Full point group: C2v

    Geometry (in Angstrom), charge = -2, multiplicity = 1:

    S       
    S             1          R1
    S             1          R2      2          A1

    A1        =  112.8713089632
    R1        =    2.0938410374
    R2        =    2.0938410374

	Removing binary optimization data file.
	Cleaning optimization helper files.

    Psi4 stopped on: Friday, 29 January 2021 11:06AM
    Psi4 wall time for execution: 0:06:46.38

*** Psi4 exiting successfully. Buy a developer a beer!
