
Host: ss-sub1.gacrc.uga.edu

Timers On : Wed Mar 10 12:53:56 2021
Timers Off: Wed Mar 10 13:03:30 2021

Wall Time:      574.86 seconds

                                                       Time (seconds)
Module                                       User      System        Wall        Calls

--------------------------------------------------------------------------------------

**************************************************************************************
