
    -----------------------------------------------------------------------
          Psi4: An Open-Source Ab Initio Electronic Structure Package
                               Psi4 1.4a2.dev191 

                         Git: Rev {master} 0ab5346 


    R. M. Parrish, L. A. Burns, D. G. A. Smith, A. C. Simmonett,
    A. E. DePrince III, E. G. Hohenstein, U. Bozkaya, A. Yu. Sokolov,
    R. Di Remigio, R. M. Richard, J. F. Gonthier, A. M. James,
    H. R. McAlexander, A. Kumar, M. Saitow, X. Wang, B. P. Pritchard,
    P. Verma, H. F. Schaefer III, K. Patkowski, R. A. King, E. F. Valeev,
    F. A. Evangelista, J. M. Turney, T. D. Crawford, and C. D. Sherrill,
    J. Chem. Theory Comput. 13(7) pp 3185--3197 (2017).
    (doi: 10.1021/acs.jctc.7b00174)


                         Additional Contributions by
    P. Kraus, H. Kruse, M. H. Lechner, M. C. Schieber, R. A. Shaw,
    A. Alenaizan, R. Galvelis, Z. L. Glick, S. Lehtola, and J. P. Misiewicz

    -----------------------------------------------------------------------


    Psi4 started on: Wednesday, 03 February 2021 09:18AM

    Process ID: 31784
    Host:       c1-9.compute.lan
    PSIDATADIR: /apps/gb/PSI4/1.4.0/share/psi4
    Memory:     500.0 MiB
    Threads:    1
    
  ==> Input File <==

--------------------------------------------------------------------------
memory 10 GB

molecule  {
-1 2
S
S 1 r1
S 1 r2 2 a1
r1 = 2.0
r2 = 2.1
a1 = 120.0
}

set {
reference uks
basis aug-cc-pvtz
g_convergence gau_verytight
dft_spherical_points 590
dft_radial_points 99
maxiter 500
}

optimize('wb97m-v')
frequencies('wb97m-v')

--------------------------------------------------------------------------

  Memory set to   9.313 GiB by Python driver.
gradient() will perform gradient computation by finite difference of analytic energies.

         ----------------------------------------------------------
                                   FINDIF
                     R. A. King and Jonathon Misiewicz
         ---------------------------------------------------------

  Using finite-differences of energies to determine gradients.
    Generating geometries for use with 3-point formula.
    Displacement size will be 5.00e-03.
    Number of atoms is 3.
    Number of symmetric SALCs is 3.
    Translations projected? 1. Rotations projected? 1.
    Number of geometries (including reference) is 7.

  //>>>>>>>>>>>>>>>>>>>>>>>>>>>>>>>>>>>//
  //    Loading displacement 1 of 7    //
  //<<<<<<<<<<<<<<<<<<<<<<<<<<<<<<<<<<<//

*** tstart() called on c1-9.compute.lan
*** at Wed Feb  3 09:18:39 2021

   => Loading Basis Set <=

    Name: AUG-CC-PVTZ
    Role: ORBITAL
    Keyword: BASIS
    atoms 1-3 entry S          line   906 file /apps/gb/PSI4/1.4.0/share/psi4/basis/aug-cc-pvtz.gbs 


         ---------------------------------------------------------
                                   SCF
               by Justin Turney, Rob Parrish, Andy Simmonett
                          and Daniel G. A. Smith
                              UKS Reference
                        1 Threads,   9536 MiB Core
         ---------------------------------------------------------

  ==> Geometry <==

    Molecular point group: cs
    Full point group: Cs

    Geometry (in Angstrom), charge = -1, multiplicity = 2:

       Center              X                  Y                   Z               Mass       
    ------------   -----------------  -----------------  -----------------  -----------------
         S            0.606217782649     0.316666666667     0.000000000000    31.972071174400
         S            0.606217782649    -1.683333333333     0.000000000000    31.972071174400
         S           -1.212435565298     1.366666666667     0.000000000000    31.972071174400

  Running in cs symmetry.

  Rotational constants: A =      0.75413  B =      0.08359  C =      0.07525 [cm^-1]
  Rotational constants: A =  22608.14975  B =   2506.04720  C =   2255.97858 [MHz]
  Nuclear repulsion =  170.392939668640480

  Charge       = -1
  Multiplicity = 2
  Electrons    = 49
  Nalpha       = 25
  Nbeta        = 24

  ==> Algorithm <==

  SCF Algorithm Type is DF.
  DIIS enabled.
  MOM disabled.
  Fractional occupation disabled.
  Guess Type is SAD.
  Energy threshold   = 1.00e-08
  Density threshold  = 1.00e-08
  Integral threshold = 0.00e+00

  ==> Primary Basis <==

  Basis Set: AUG-CC-PVTZ
    Blend: AUG-CC-PVTZ
    Number of shells: 48
    Number of basis function: 150
    Number of Cartesian functions: 177
    Spherical Harmonics?: true
    Max angular momentum: 3

  ==> DFT Potential <==

   => Composite Functional: WB97M-V <= 

    wB97M-V Hyb-GGA Exchange-Correlation Functional

    N. Mardirossian and M. Head-Gordon, J. Chem. Phys. 144, 214110 (2016)

    Deriv               =              1
    GGA                 =           TRUE
    Meta                =           TRUE

    Exchange Hybrid     =           TRUE
    MP2 Hybrid          =          FALSE

   => Exchange-Correlation Functionals <=

    1.0000   wB97M-V exchange-correlation functional

   => Exact (HF) Exchange <=

    0.8500            HF,LR [omega = 0.3000]
    0.1500               HF 

   => VV10 Non-Local Parameters <=

    VV10 B              =     6.0000E+00
    VV10 C              =     1.0000E-02

   => Molecular Quadrature <=

    Radial Scheme          =       TREUTLER
    Pruning Scheme         =           NONE
    Nuclear Scheme         =       TREUTLER

    BS radius alpha        =              1
    Pruning alpha          =              1
    Radial Points          =             99
    Spherical Points       =            590
    Total Points           =         169931
    Total Blocks           =           1391
    Max Points             =            256
    Max Functions          =            150
    Weights Tolerance      =       1.00E-15

   => Loading Basis Set <=

    Name: (AUG-CC-PVTZ AUX)
    Role: JKFIT
    Keyword: DF_BASIS_SCF
    atoms 1-3 entry S          line   730 file /apps/gb/PSI4/1.4.0/share/psi4/basis/aug-cc-pvtz-jkfit.gbs 

  ==> Pre-Iterations <==

   -------------------------------------------------------
    Irrep   Nso     Nmo     Nalpha   Nbeta   Ndocc  Nsocc
   -------------------------------------------------------
     A'        99      99       0       0       0       0
     A"        51      51       0       0       0       0
   -------------------------------------------------------
    Total     150     150      25      24      24       1
   -------------------------------------------------------

  ==> Integral Setup <==

  ==> DiskDFJK: Density-Fitted J/K Matrices <==

    J tasked:                  Yes
    K tasked:                  Yes
    wK tasked:                 Yes
    Omega:               3.000E-01
    OpenMP threads:              1
    Integrals threads:           1
    Memory [MiB]:             5488
    Algorithm:                Core
    Integral Cache:           NONE
    Schwarz Cutoff:          1E-12
    Fitting Condition:       1E-10

   => Auxiliary Basis Set <=

  Basis Set: (AUG-CC-PVTZ AUX)
    Blend: AUG-CC-PVTZ-JKFIT
    Number of shells: 126
    Number of basis function: 438
    Number of Cartesian functions: 540
    Spherical Harmonics?: true
    Max angular momentum: 4

  Cached 100.0% of DFT collocation blocks in 1.625 [GiB].

  Minimum eigenvalue in the overlap matrix is 2.2915518432E-04.
  Using Symmetric Orthogonalization.

  SCF Guess: Superposition of Atomic Densities via on-the-fly atomic UHF.

  ==> Iterations <==

                           Total Energy        Delta E     RMS |[F,P]|

   @DF-UKS iter SAD: -1194.00650497784409   -1.19401e+03   0.00000e+00 
   @DF-UKS iter   1: -1194.54552085356681   -5.39016e-01   3.87085e-03 DIIS
   @DF-UKS iter   2: -1194.59626863145104   -5.07478e-02   2.72593e-03 DIIS
   @DF-UKS iter   3: -1194.63645702415852   -4.01884e-02   6.48238e-04 DIIS
   @DF-UKS iter   4: -1194.63924260889462   -2.78558e-03   1.16119e-04 DIIS
   @DF-UKS iter   5: -1194.63944508341865   -2.02475e-04   4.87461e-05 DIIS
   @DF-UKS iter   6: -1194.63948204282269   -3.69594e-05   1.86406e-05 DIIS
   @DF-UKS iter   7: -1194.63949000041794   -7.95760e-06   1.11625e-05 DIIS
   @DF-UKS iter   8: -1194.63949358625746   -3.58584e-06   5.22281e-06 DIIS
   @DF-UKS iter   9: -1194.63949570877662   -2.12252e-06   3.37021e-06 DIIS
   @DF-UKS iter  10: -1194.63949666953363   -9.60757e-07   2.08540e-06 DIIS
   @DF-UKS iter  11: -1194.63949717671494   -5.07181e-07   1.15016e-06 DIIS
   @DF-UKS iter  12: -1194.63949735573260   -1.79018e-07   3.87639e-07 DIIS
   @DF-UKS iter  13: -1194.63949737057010   -1.48375e-08   1.46523e-07 DIIS
   @DF-UKS iter  14: -1194.63949737177836   -1.20826e-09   6.58813e-08 DIIS
   @DF-UKS iter  15: -1194.63949737196003   -1.81672e-10   2.24702e-08 DIIS
   @DF-UKS iter  16: -1194.63949737198459   -2.45564e-11   1.14968e-08 DIIS
   @DF-UKS iter  17: -1194.63949737198777   -3.18323e-12   6.66174e-09 DIIS
  Energy and wave function converged.


  ==> Post-Iterations <==

   @Spin Contamination Metric:   5.317101201E-03
   @S^2 Expected:                7.500000000E-01
   @S^2 Observed:                7.553171012E-01
   @S   Expected:                5.000000000E-01
   @S   Observed:                5.000000000E-01

    Orbital Energies [Eh]
    ---------------------

    Alpha Occupied:                                                       

       1Ap   -89.102457     2Ap   -89.020593     3Ap   -89.011091  
       4Ap    -8.007234     5Ap    -7.932975     6Ap    -7.922044  
       1App   -5.916382     7Ap    -5.916329     8Ap    -5.912627  
       9Ap    -5.843653     2App   -5.841007    10Ap    -5.835752  
      11Ap    -5.833461     3App   -5.829151    12Ap    -5.824881  
      13Ap    -0.754696    14Ap    -0.625582    15Ap    -0.508604  
      16Ap    -0.304422     4App   -0.283859    17Ap    -0.280912  
       5App   -0.176703    18Ap    -0.153395    19Ap    -0.148185  
       6App   -0.109254  

    Alpha Virtual:                                                        

      20Ap     0.148162    21Ap     0.150759    22Ap     0.184650  
      23Ap     0.198633     7App    0.199575    24Ap     0.209808  
       8App    0.215979     9App    0.220334    25Ap     0.229045  
      26Ap     0.230645    27Ap     0.250541    28Ap     0.270624  
      29Ap     0.323938    30Ap     0.342114    10App    0.362383  
      31Ap     0.382809    11App    0.387304    32Ap     0.424656  
      33Ap     0.437136    34Ap     0.442862    12App    0.455671  
      35Ap     0.459088    13App    0.459523    14App    0.498169  
      36Ap     0.499861    37Ap     0.511870    38Ap     0.528115  
      15App    0.544957    39Ap     0.570365    16App    0.626969  
      40Ap     0.654297    17App    0.699508    41Ap     0.710320  
      42Ap     0.718654    43Ap     0.726148    18App    0.738764  
      44Ap     0.739329    19App    0.740432    45Ap     0.745278  
      20App    0.754486    46Ap     0.763470    47Ap     0.796691  
      48Ap     0.818073    21App    0.819619    49Ap     0.828011  
      22App    0.839477    50Ap     0.845559    51Ap     0.857395  
      52Ap     0.878142    23App    0.879260    24App    0.919401  
      53Ap     0.922379    25App    0.938465    54Ap     0.976771  
      26App    0.980321    55Ap     0.982665    27App    0.997035  
      56Ap     1.022671    57Ap     1.041062    58Ap     1.043328  
      59Ap     1.122898    28App    1.129313    29App    1.166725  
      60Ap     1.192886    30App    1.226917    61Ap     1.233555  
      31App    1.301185    62Ap     1.306903    63Ap     1.316983  
      64Ap     1.351304    65Ap     1.373991    32App    1.390512  
      33App    1.397788    66Ap     1.497086    67Ap     1.507311  
      68Ap     1.574372    69Ap     1.677121    70Ap     1.971720  
      34App    1.982436    35App    2.009671    71Ap     2.019025  
      36App    2.046617    72Ap     2.051905    37App    2.061297  
      73Ap     2.066751    74Ap     2.099161    38App    2.127259  
      75Ap     2.147295    76Ap     2.171235    77Ap     2.182452  
      39App    2.188186    78Ap     2.197878    40App    2.198280  
      41App    2.220236    79Ap     2.226705    42App    2.249795  
      80Ap     2.264553    43App    2.273568    81Ap     2.310599  
      82Ap     2.331283    44App    2.346088    83Ap     2.353283  
      45App    2.360776    84Ap     2.368604    46App    2.431871  
      85Ap     2.441753    47App    2.445008    86Ap     2.454925  
      87Ap     2.474374    48App    2.478070    49App    2.523593  
      88Ap     2.563117    89Ap     2.583113    90Ap     2.632745  
      91Ap     2.649977    92Ap     2.684441    50App    2.716164  
      93Ap     2.740714    51App    2.779477    94Ap     2.892772  
      95Ap     3.776703    96Ap     3.883607    97Ap     4.960455  
      98Ap     5.373845    99Ap     5.830811  

    Beta Occupied:                                                        

       1Ap   -89.099460     2Ap   -89.018698     3Ap   -89.009588  
       4Ap    -8.004216     5Ap    -7.931050     6Ap    -7.920517  
       7Ap    -5.914308     8Ap    -5.910627     1App   -5.905689  
       9Ap    -5.842522    10Ap    -5.834403     2App   -5.834049  
      11Ap    -5.832640    12Ap    -5.823821     3App   -5.823547  
      13Ap    -0.743948    14Ap    -0.616482    15Ap    -0.488719  
      16Ap    -0.295725    17Ap    -0.274048     4App   -0.250104  
      18Ap    -0.147903    19Ap    -0.142562     5App   -0.132631  

    Beta Virtual:                                                         

       6App    0.114526    20Ap     0.147759    21Ap     0.151155  
      22Ap     0.184661    23Ap     0.200408     7App    0.200815  
      24Ap     0.210484     8App    0.215451     9App    0.222724  
      25Ap     0.229468    26Ap     0.234417    27Ap     0.251886  
      28Ap     0.275639    29Ap     0.325598    30Ap     0.343062  
      10App    0.365926    31Ap     0.384078    11App    0.395465  
      32Ap     0.425886    33Ap     0.439591    34Ap     0.445374  
      35Ap     0.462329    12App    0.462466    13App    0.463913  
      36Ap     0.501233    14App    0.501477    37Ap     0.512373  
      38Ap     0.529578    15App    0.548321    39Ap     0.572761  
      16App    0.634342    40Ap     0.656084    17App    0.705271  
      41Ap     0.711280    42Ap     0.721215    43Ap     0.727914  
      44Ap     0.740204    18App    0.746148    45Ap     0.748917  
      19App    0.748917    20App    0.761432    46Ap     0.765807  
      47Ap     0.799896    48Ap     0.820208    21App    0.827806  
      49Ap     0.834830    22App    0.845391    50Ap     0.852212  
      51Ap     0.864885    52Ap     0.885169    23App    0.888241  
      24App    0.926471    53Ap     0.928670    25App    0.950520  
      54Ap     0.979419    26App    0.982571    55Ap     0.985741  
      27App    1.001094    56Ap     1.027625    57Ap     1.044406  
      58Ap     1.047253    59Ap     1.124621    28App    1.132304  
      29App    1.171568    60Ap     1.196352    30App    1.231757  
      61Ap     1.235793    31App    1.305909    62Ap     1.307596  
      63Ap     1.318318    64Ap     1.354514    65Ap     1.376310  
      32App    1.397316    33App    1.404434    66Ap     1.506504  
      67Ap     1.509083    68Ap     1.584122    69Ap     1.693544  
      70Ap     1.988299    34App    2.002518    35App    2.024778  
      71Ap     2.035491    36App    2.060732    72Ap     2.062951  
      73Ap     2.074905    37App    2.077053    74Ap     2.102590  
      75Ap     2.148767    38App    2.152861    76Ap     2.174470  
      77Ap     2.189354    39App    2.205522    78Ap     2.206021  
      40App    2.220258    41App    2.231742    79Ap     2.235079  
      42App    2.266269    80Ap     2.272637    43App    2.301550  
      81Ap     2.316368    82Ap     2.338115    44App    2.361522  
      83Ap     2.366031    45App    2.374655    84Ap     2.380844  
      46App    2.440311    85Ap     2.449009    47App    2.462025  
      86Ap     2.463334    87Ap     2.481082    48App    2.494456  
      49App    2.542490    88Ap     2.574874    89Ap     2.591216  
      90Ap     2.637594    91Ap     2.653233    92Ap     2.688428  
      50App    2.731256    93Ap     2.747024    51App    2.799031  
      94Ap     2.895201    95Ap     3.779470    96Ap     3.887290  
      97Ap     4.969471    98Ap     5.381047    99Ap     5.840108  

    Final Occupation by Irrep:
             Ap   App 
    DOCC [    19,    5 ]
    SOCC [     0,    1 ]

  @DF-UKS Final Energy: -1194.63949737198777

   => Energetics <=

    Nuclear Repulsion Energy =            170.3929396686404800
    One-Electron Energy =               -1998.9730179274906732
    Two-Electron Energy =                 693.1864501499331936
    DFT Exchange-Correlation Energy =     -59.4464971463200200
    Empirical Dispersion Energy =           0.0000000000000000
    VV10 Nonlocal Energy =                  0.2006278832489604
    Total Energy =                      -1194.6394973719879999

  UHF NO Occupations:
  HONO-2 :    4App 1.9993553
  HONO-1 :    5App 1.9983926
  HONO-0 :    6App 1.0000000
  LUNO+0 :    7App 0.0016074
  LUNO+1 :    8App 0.0006447
  LUNO+2 :   20 Ap 0.0001845
  LUNO+3 :   21 Ap 0.0000731


Computation Completed


Properties will be evaluated at   0.000000,   0.000000,   0.000000 [a0]

Properties computed using the SCF density matrix

  Nuclear Dipole Moment: [e a0]
     X:     0.0000      Y:     0.0000      Z:     0.0000

  Electronic Dipole Moment: [e a0]
     X:     0.5092      Y:     0.0083      Z:     0.0000

  Dipole Moment: [e a0]
     X:     0.5092      Y:     0.0083      Z:     0.0000     Total:     0.5092

  Dipole Moment: [D]
     X:     1.2942      Y:     0.0212      Z:     0.0000     Total:     1.2944


*** tstop() called on c1-9.compute.lan at Wed Feb  3 09:20:46 2021
Module time:
	user time   =     125.17 seconds =       2.09 minutes
	system time =       2.18 seconds =       0.04 minutes
	total time  =        127 seconds =       2.12 minutes
Total time:
	user time   =     125.17 seconds =       2.09 minutes
	system time =       2.18 seconds =       0.04 minutes
	total time  =        127 seconds =       2.12 minutes

  //>>>>>>>>>>>>>>>>>>>>>>>>>>>>>>>>>>>//
  //    Loading displacement 2 of 7    //
  //<<<<<<<<<<<<<<<<<<<<<<<<<<<<<<<<<<<//

*** tstart() called on c1-9.compute.lan
*** at Wed Feb  3 09:20:46 2021

   => Loading Basis Set <=

    Name: AUG-CC-PVTZ
    Role: ORBITAL
    Keyword: BASIS
    atoms 1-3 entry S          line   906 file /apps/gb/PSI4/1.4.0/share/psi4/basis/aug-cc-pvtz.gbs 


         ---------------------------------------------------------
                                   SCF
               by Justin Turney, Rob Parrish, Andy Simmonett
                          and Daniel G. A. Smith
                              UKS Reference
                        1 Threads,   9536 MiB Core
         ---------------------------------------------------------

  ==> Geometry <==

    Molecular point group: cs
    Full point group: Cs

    Geometry (in Angstrom), charge = -1, multiplicity = 2:

       Center              X                  Y                   Z               Mass       
    ------------   -----------------  -----------------  -----------------  -----------------
         S            0.605839838422     0.316650793508     0.000000000000    31.972071174400
         S            0.606366824283    -1.683349206492     0.000000000000    31.972071174400
         S           -1.212206662705     1.366698412984     0.000000000000    31.972071174400

  Running in cs symmetry.

  Rotational constants: A =      0.75486  B =      0.08359  C =      0.07526 [cm^-1]
  Rotational constants: A =  22630.03950  B =   2506.05749  C =   2256.20469 [MHz]
  Nuclear repulsion =  170.408352754223188

  Charge       = -1
  Multiplicity = 2
  Electrons    = 49
  Nalpha       = 25
  Nbeta        = 24

  ==> Algorithm <==

  SCF Algorithm Type is DF.
  DIIS enabled.
  MOM disabled.
  Fractional occupation disabled.
  Guess Type is SAD.
  Energy threshold   = 1.00e-08
  Density threshold  = 1.00e-08
  Integral threshold = 0.00e+00

  ==> Primary Basis <==

  Basis Set: AUG-CC-PVTZ
    Blend: AUG-CC-PVTZ
    Number of shells: 48
    Number of basis function: 150
    Number of Cartesian functions: 177
    Spherical Harmonics?: true
    Max angular momentum: 3

  ==> DFT Potential <==

   => Composite Functional: WB97M-V <= 

    wB97M-V Hyb-GGA Exchange-Correlation Functional

    N. Mardirossian and M. Head-Gordon, J. Chem. Phys. 144, 214110 (2016)

    Deriv               =              1
    GGA                 =           TRUE
    Meta                =           TRUE

    Exchange Hybrid     =           TRUE
    MP2 Hybrid          =          FALSE

   => Exchange-Correlation Functionals <=

    1.0000   wB97M-V exchange-correlation functional

   => Exact (HF) Exchange <=

    0.8500            HF,LR [omega = 0.3000]
    0.1500               HF 

   => VV10 Non-Local Parameters <=

    VV10 B              =     6.0000E+00
    VV10 C              =     1.0000E-02

   => Molecular Quadrature <=

    Radial Scheme          =       TREUTLER
    Pruning Scheme         =           NONE
    Nuclear Scheme         =       TREUTLER

    BS radius alpha        =              1
    Pruning alpha          =              1
    Radial Points          =             99
    Spherical Points       =            590
    Total Points           =         169936
    Total Blocks           =           1391
    Max Points             =            256
    Max Functions          =            150
    Weights Tolerance      =       1.00E-15

   => Loading Basis Set <=

    Name: (AUG-CC-PVTZ AUX)
    Role: JKFIT
    Keyword: DF_BASIS_SCF
    atoms 1-3 entry S          line   730 file /apps/gb/PSI4/1.4.0/share/psi4/basis/aug-cc-pvtz-jkfit.gbs 

  ==> Pre-Iterations <==

   -------------------------------------------------------
    Irrep   Nso     Nmo     Nalpha   Nbeta   Ndocc  Nsocc
   -------------------------------------------------------
     A'        99      99       0       0       0       0
     A"        51      51       0       0       0       0
   -------------------------------------------------------
    Total     150     150      25      24      24       1
   -------------------------------------------------------

  ==> Integral Setup <==

  ==> DiskDFJK: Density-Fitted J/K Matrices <==

    J tasked:                  Yes
    K tasked:                  Yes
    wK tasked:                 Yes
    Omega:               3.000E-01
    OpenMP threads:              1
    Integrals threads:           1
    Memory [MiB]:             5488
    Algorithm:                Core
    Integral Cache:           NONE
    Schwarz Cutoff:          1E-12
    Fitting Condition:       1E-10

   => Auxiliary Basis Set <=

  Basis Set: (AUG-CC-PVTZ AUX)
    Blend: AUG-CC-PVTZ-JKFIT
    Number of shells: 126
    Number of basis function: 438
    Number of Cartesian functions: 540
    Spherical Harmonics?: true
    Max angular momentum: 4

  Cached 100.0% of DFT collocation blocks in 1.625 [GiB].

  Minimum eigenvalue in the overlap matrix is 2.2907929932E-04.
  Using Symmetric Orthogonalization.

  SCF Guess: Superposition of Atomic Densities via on-the-fly atomic UHF.

  ==> Iterations <==

                           Total Energy        Delta E     RMS |[F,P]|

   @DF-UKS iter SAD: -1194.00702521997755   -1.19401e+03   0.00000e+00 
   @DF-UKS iter   1: -1194.54556896555073   -5.38544e-01   3.87048e-03 DIIS
   @DF-UKS iter   2: -1194.59636308959671   -5.07941e-02   2.72423e-03 DIIS
   @DF-UKS iter   3: -1194.63648262735933   -4.01195e-02   6.47675e-04 DIIS
   @DF-UKS iter   4: -1194.63926273587367   -2.78011e-03   1.16091e-04 DIIS
   @DF-UKS iter   5: -1194.63946508130402   -2.02345e-04   4.86826e-05 DIIS
   @DF-UKS iter   6: -1194.63950194640324   -3.68651e-05   1.85994e-05 DIIS
   @DF-UKS iter   7: -1194.63950986055534   -7.91415e-06   1.11361e-05 DIIS
   @DF-UKS iter   8: -1194.63951341838970   -3.55783e-06   5.20246e-06 DIIS
   @DF-UKS iter   9: -1194.63951551779519   -2.09941e-06   3.35310e-06 DIIS
   @DF-UKS iter  10: -1194.63951646548117   -9.47686e-07   2.07365e-06 DIIS
   @DF-UKS iter  11: -1194.63951696592449   -5.00443e-07   1.14580e-06 DIIS
   @DF-UKS iter  12: -1194.63951714359837   -1.77674e-07   3.86748e-07 DIIS
   @DF-UKS iter  13: -1194.63951715840926   -1.48109e-08   1.45941e-07 DIIS
   @DF-UKS iter  14: -1194.63951715961002   -1.20076e-09   6.56513e-08 DIIS
   @DF-UKS iter  15: -1194.63951715979169   -1.81672e-10   2.24061e-08 DIIS
   @DF-UKS iter  16: -1194.63951715981443   -2.27374e-11   1.14946e-08 DIIS
   @DF-UKS iter  17: -1194.63951715981875   -4.32010e-12   6.63851e-09 DIIS
  Energy and wave function converged.


  ==> Post-Iterations <==

   @Spin Contamination Metric:   5.316972254E-03
   @S^2 Expected:                7.500000000E-01
   @S^2 Observed:                7.553169723E-01
   @S   Expected:                5.000000000E-01
   @S   Observed:                5.000000000E-01

    Orbital Energies [Eh]
    ---------------------

    Alpha Occupied:                                                       

       1Ap   -89.102433     2Ap   -89.020553     3Ap   -89.011102  
       4Ap    -8.007213     5Ap    -7.932936     6Ap    -7.922062  
       1App   -5.916361     7Ap    -5.916309     8Ap    -5.912606  
       9Ap    -5.843615     2App   -5.840965    10Ap    -5.835713  
      11Ap    -5.833476     3App   -5.829172    12Ap    -5.824900  
      13Ap    -0.754726    14Ap    -0.625638    15Ap    -0.508563  
      16Ap    -0.304441     4App   -0.283871    17Ap    -0.280919  
       5App   -0.176721    18Ap    -0.153395    19Ap    -0.148184  
       6App   -0.109218  

    Alpha Virtual:                                                        

      20Ap     0.148165    21Ap     0.150771    22Ap     0.184660  
      23Ap     0.198647     7App    0.199577    24Ap     0.209804  
       8App    0.215976     9App    0.220343    25Ap     0.229061  
      26Ap     0.230667    27Ap     0.250538    28Ap     0.270695  
      29Ap     0.323938    30Ap     0.342127    10App    0.362378  
      31Ap     0.382785    11App    0.387315    32Ap     0.424651  
      33Ap     0.437153    34Ap     0.442890    12App    0.455708  
      35Ap     0.459115    13App    0.459505    14App    0.498182  
      36Ap     0.499859    37Ap     0.511892    38Ap     0.528133  
      15App    0.544987    39Ap     0.570387    16App    0.626968  
      40Ap     0.654277    17App    0.699484    41Ap     0.710319  
      42Ap     0.718655    43Ap     0.726120    18App    0.738771  
      44Ap     0.739342    19App    0.740473    45Ap     0.745296  
      20App    0.754505    46Ap     0.763446    47Ap     0.796729  
      48Ap     0.818089    21App    0.819637    49Ap     0.828008  
      22App    0.839444    50Ap     0.845549    51Ap     0.857430  
      52Ap     0.878193    23App    0.879268    24App    0.919397  
      53Ap     0.922388    25App    0.938539    54Ap     0.976787  
      26App    0.980310    55Ap     0.982689    27App    0.997097  
      56Ap     1.022826    57Ap     1.041097    58Ap     1.043355  
      59Ap     1.122944    28App    1.129289    29App    1.166782  
      60Ap     1.192942    30App    1.227016    61Ap     1.233661  
      31App    1.301229    62Ap     1.306920    63Ap     1.317051  
      64Ap     1.351397    65Ap     1.374013    32App    1.390571  
      33App    1.397896    66Ap     1.497231    67Ap     1.507424  
      68Ap     1.574423    69Ap     1.677171    70Ap     1.971709  
      34App    1.982446    35App    2.009709    71Ap     2.019026  
      36App    2.046640    72Ap     2.051940    37App    2.061310  
      73Ap     2.066825    74Ap     2.099070    38App    2.127274  
      75Ap     2.147362    76Ap     2.171205    77Ap     2.182443  
      39App    2.188163    78Ap     2.197820    40App    2.198262  
      41App    2.220244    79Ap     2.226627    42App    2.249766  
      80Ap     2.264530    43App    2.273568    81Ap     2.310548  
      82Ap     2.331316    44App    2.346125    83Ap     2.353274  
      45App    2.360761    84Ap     2.368578    46App    2.431862  
      85Ap     2.441799    47App    2.445199    86Ap     2.455014  
      87Ap     2.474483    48App    2.478094    49App    2.523723  
      88Ap     2.563242    89Ap     2.583661    90Ap     2.632862  
      91Ap     2.650082    92Ap     2.684508    50App    2.716469  
      93Ap     2.740761    51App    2.779520    94Ap     2.893053  
      95Ap     3.777282    96Ap     3.883732    97Ap     4.961222  
      98Ap     5.373973    99Ap     5.830724  

    Beta Occupied:                                                        

       1Ap   -89.099435     2Ap   -89.018659     3Ap   -89.009598  
       4Ap    -8.004195     5Ap    -7.931013     6Ap    -7.920534  
       7Ap    -5.914288     8Ap    -5.910605     1App   -5.905668  
       9Ap    -5.842485    10Ap    -5.834366     2App   -5.834011  
      11Ap    -5.832654    12Ap    -5.823839     3App   -5.823564  
      13Ap    -0.743979    14Ap    -0.616539    15Ap    -0.488677  
      16Ap    -0.295744    17Ap    -0.274056     4App   -0.250125  
      18Ap    -0.147914    19Ap    -0.142547     5App   -0.132650  

    Beta Virtual:                                                         

       6App    0.114563    20Ap     0.147762    21Ap     0.151165  
      22Ap     0.184670    23Ap     0.200421     7App    0.200818  
      24Ap     0.210479     8App    0.215444     9App    0.222734  
      25Ap     0.229478    26Ap     0.234447    27Ap     0.251884  
      28Ap     0.275707    29Ap     0.325599    30Ap     0.343075  
      10App    0.365920    31Ap     0.384054    11App    0.395476  
      32Ap     0.425881    33Ap     0.439606    34Ap     0.445402  
      35Ap     0.462357    12App    0.462492    13App    0.463907  
      36Ap     0.501231    14App    0.501490    37Ap     0.512394  
      38Ap     0.529597    15App    0.548353    39Ap     0.572784  
      16App    0.634341    40Ap     0.656064    17App    0.705247  
      41Ap     0.711286    42Ap     0.721211    43Ap     0.727885  
      44Ap     0.740214    18App    0.746158    45Ap     0.748935  
      19App    0.748953    20App    0.761449    46Ap     0.765783  
      47Ap     0.799932    48Ap     0.820215    21App    0.827825  
      49Ap     0.834836    22App    0.845359    50Ap     0.852197  
      51Ap     0.864928    52Ap     0.885220    23App    0.888248  
      24App    0.926468    53Ap     0.928678    25App    0.950594  
      54Ap     0.979430    26App    0.982558    55Ap     0.985772  
      27App    1.001159    56Ap     1.027776    57Ap     1.044431  
      58Ap     1.047293    59Ap     1.124667    28App    1.132281  
      29App    1.171626    60Ap     1.196410    30App    1.231854  
      61Ap     1.235897    31App    1.305955    62Ap     1.307611  
      63Ap     1.318389    64Ap     1.354608    65Ap     1.376333  
      32App    1.397382    33App    1.404538    66Ap     1.506654  
      67Ap     1.509200    68Ap     1.584167    69Ap     1.693590  
      70Ap     1.988291    34App    2.002529    35App    2.024815  
      71Ap     2.035485    36App    2.060751    72Ap     2.063028  
      73Ap     2.074948    37App    2.077064    74Ap     2.102498  
      75Ap     2.148831    38App    2.152869    76Ap     2.174439  
      77Ap     2.189322    39App    2.205491    78Ap     2.205988  
      40App    2.220256    41App    2.231750    79Ap     2.234997  
      42App    2.266230    80Ap     2.272611    43App    2.301562  
      81Ap     2.316314    82Ap     2.338140    44App    2.361550  
      83Ap     2.366028    45App    2.374649    84Ap     2.380827  
      46App    2.440303    85Ap     2.449059    47App    2.462213  
      86Ap     2.463433    87Ap     2.481182    48App    2.494478  
      49App    2.542623    88Ap     2.575004    89Ap     2.591755  
      90Ap     2.637720    91Ap     2.653323    92Ap     2.688500  
      50App    2.731562    93Ap     2.747073    51App    2.799075  
      94Ap     2.895480    95Ap     3.780051    96Ap     3.887415  
      97Ap     4.970239    98Ap     5.381173    99Ap     5.840021  

    Final Occupation by Irrep:
             Ap   App 
    DOCC [    19,    5 ]
    SOCC [     0,    1 ]

  @DF-UKS Final Energy: -1194.63951715981875

   => Energetics <=

    Nuclear Repulsion Energy =            170.4083527542231877
    One-Electron Energy =               -1999.0040837463463959
    Two-Electron Energy =                 693.2022047469229165
    DFT Exchange-Correlation Energy =     -59.4466181889522289
    Empirical Dispersion Energy =           0.0000000000000000
    VV10 Nonlocal Energy =                  0.2006272743338939
    Total Energy =                      -1194.6395171598187517

  UHF NO Occupations:
  HONO-2 :    4App 1.9993555
  HONO-1 :    5App 1.9983924
  HONO-0 :    6App 1.0000000
  LUNO+0 :    7App 0.0016076
  LUNO+1 :    8App 0.0006445
  LUNO+2 :   20 Ap 0.0001845
  LUNO+3 :   21 Ap 0.0000731


Computation Completed


Properties will be evaluated at   0.000000,   0.000000,   0.000000 [a0]

Properties computed using the SCF density matrix

  Nuclear Dipole Moment: [e a0]
     X:     0.0000      Y:    -0.0000      Z:     0.0000

  Electronic Dipole Moment: [e a0]
     X:     0.5084      Y:     0.0093      Z:     0.0000

  Dipole Moment: [e a0]
     X:     0.5084      Y:     0.0093      Z:     0.0000     Total:     0.5084

  Dipole Moment: [D]
     X:     1.2921      Y:     0.0237      Z:     0.0000     Total:     1.2923


*** tstop() called on c1-9.compute.lan at Wed Feb  3 09:22:52 2021
Module time:
	user time   =     124.79 seconds =       2.08 minutes
	system time =       1.04 seconds =       0.02 minutes
	total time  =        126 seconds =       2.10 minutes
Total time:
	user time   =     249.96 seconds =       4.17 minutes
	system time =       3.22 seconds =       0.05 minutes
	total time  =        253 seconds =       4.22 minutes

  //>>>>>>>>>>>>>>>>>>>>>>>>>>>>>>>>>>>//
  //    Loading displacement 3 of 7    //
  //<<<<<<<<<<<<<<<<<<<<<<<<<<<<<<<<<<<//

*** tstart() called on c1-9.compute.lan
*** at Wed Feb  3 09:22:52 2021

   => Loading Basis Set <=

    Name: AUG-CC-PVTZ
    Role: ORBITAL
    Keyword: BASIS
    atoms 1-3 entry S          line   906 file /apps/gb/PSI4/1.4.0/share/psi4/basis/aug-cc-pvtz.gbs 


         ---------------------------------------------------------
                                   SCF
               by Justin Turney, Rob Parrish, Andy Simmonett
                          and Daniel G. A. Smith
                              UKS Reference
                        1 Threads,   9536 MiB Core
         ---------------------------------------------------------

  ==> Geometry <==

    Molecular point group: cs
    Full point group: Cs

    Geometry (in Angstrom), charge = -1, multiplicity = 2:

       Center              X                  Y                   Z               Mass       
    ------------   -----------------  -----------------  -----------------  -----------------
         S            0.606595726876     0.316682539825     0.000000000000    31.972071174400
         S            0.606068741015    -1.683317460175     0.000000000000    31.972071174400
         S           -1.212664467891     1.366634920350     0.000000000000    31.972071174400

  Running in cs symmetry.

  Rotational constants: A =      0.75340  B =      0.08359  C =      0.07524 [cm^-1]
  Rotational constants: A =  22586.29300  B =   2506.03684  C =   2255.75236 [MHz]
  Nuclear repulsion =  170.377527481310608

  Charge       = -1
  Multiplicity = 2
  Electrons    = 49
  Nalpha       = 25
  Nbeta        = 24

  ==> Algorithm <==

  SCF Algorithm Type is DF.
  DIIS enabled.
  MOM disabled.
  Fractional occupation disabled.
  Guess Type is SAD.
  Energy threshold   = 1.00e-08
  Density threshold  = 1.00e-08
  Integral threshold = 0.00e+00

  ==> Primary Basis <==

  Basis Set: AUG-CC-PVTZ
    Blend: AUG-CC-PVTZ
    Number of shells: 48
    Number of basis function: 150
    Number of Cartesian functions: 177
    Spherical Harmonics?: true
    Max angular momentum: 3

  ==> DFT Potential <==

   => Composite Functional: WB97M-V <= 

    wB97M-V Hyb-GGA Exchange-Correlation Functional

    N. Mardirossian and M. Head-Gordon, J. Chem. Phys. 144, 214110 (2016)

    Deriv               =              1
    GGA                 =           TRUE
    Meta                =           TRUE

    Exchange Hybrid     =           TRUE
    MP2 Hybrid          =          FALSE

   => Exchange-Correlation Functionals <=

    1.0000   wB97M-V exchange-correlation functional

   => Exact (HF) Exchange <=

    0.8500            HF,LR [omega = 0.3000]
    0.1500               HF 

   => VV10 Non-Local Parameters <=

    VV10 B              =     6.0000E+00
    VV10 C              =     1.0000E-02

   => Molecular Quadrature <=

    Radial Scheme          =       TREUTLER
    Pruning Scheme         =           NONE
    Nuclear Scheme         =       TREUTLER

    BS radius alpha        =              1
    Pruning alpha          =              1
    Radial Points          =             99
    Spherical Points       =            590
    Total Points           =         169932
    Total Blocks           =           1391
    Max Points             =            256
    Max Functions          =            150
    Weights Tolerance      =       1.00E-15

   => Loading Basis Set <=

    Name: (AUG-CC-PVTZ AUX)
    Role: JKFIT
    Keyword: DF_BASIS_SCF
    atoms 1-3 entry S          line   730 file /apps/gb/PSI4/1.4.0/share/psi4/basis/aug-cc-pvtz-jkfit.gbs 

  ==> Pre-Iterations <==

   -------------------------------------------------------
    Irrep   Nso     Nmo     Nalpha   Nbeta   Ndocc  Nsocc
   -------------------------------------------------------
     A'        99      99       0       0       0       0
     A"        51      51       0       0       0       0
   -------------------------------------------------------
    Total     150     150      25      24      24       1
   -------------------------------------------------------

  ==> Integral Setup <==

  ==> DiskDFJK: Density-Fitted J/K Matrices <==

    J tasked:                  Yes
    K tasked:                  Yes
    wK tasked:                 Yes
    Omega:               3.000E-01
    OpenMP threads:              1
    Integrals threads:           1
    Memory [MiB]:             5488
    Algorithm:                Core
    Integral Cache:           NONE
    Schwarz Cutoff:          1E-12
    Fitting Condition:       1E-10

   => Auxiliary Basis Set <=

  Basis Set: (AUG-CC-PVTZ AUX)
    Blend: AUG-CC-PVTZ-JKFIT
    Number of shells: 126
    Number of basis function: 438
    Number of Cartesian functions: 540
    Spherical Harmonics?: true
    Max angular momentum: 4

  Cached 100.0% of DFT collocation blocks in 1.625 [GiB].

  Minimum eigenvalue in the overlap matrix is 2.2923091700E-04.
  Using Symmetric Orthogonalization.

  SCF Guess: Superposition of Atomic Densities via on-the-fly atomic UHF.

  ==> Iterations <==

                           Total Energy        Delta E     RMS |[F,P]|

   @DF-UKS iter SAD: -1194.00598501496870   -1.19401e+03   0.00000e+00 
   @DF-UKS iter   1: -1194.54547249429834   -5.39487e-01   3.87122e-03 DIIS
   @DF-UKS iter   2: -1194.59617379068072   -5.07013e-02   2.72765e-03 DIIS
   @DF-UKS iter   3: -1194.63643125359840   -4.02575e-02   6.48800e-04 DIIS
   @DF-UKS iter   4: -1194.63922232598452   -2.79107e-03   1.16148e-04 DIIS
   @DF-UKS iter   5: -1194.63942493047898   -2.02604e-04   4.88098e-05 DIIS
   @DF-UKS iter   6: -1194.63946198471899   -3.70542e-05   1.86816e-05 DIIS
   @DF-UKS iter   7: -1194.63946998603205   -8.00131e-06   1.11889e-05 DIIS
   @DF-UKS iter   8: -1194.63947360008865   -3.61406e-06   5.24329e-06 DIIS
   @DF-UKS iter   9: -1194.63947574595363   -2.14586e-06   3.38738e-06 DIIS
   @DF-UKS iter  10: -1194.63947671993083   -9.73977e-07   2.09716e-06 DIIS
   @DF-UKS iter  11: -1194.63947723390629   -5.13975e-07   1.15452e-06 DIIS
   @DF-UKS iter  12: -1194.63947741425477   -1.80348e-07   3.88533e-07 DIIS
   @DF-UKS iter  13: -1194.63947742912364   -1.48689e-08   1.47108e-07 DIIS
   @DF-UKS iter  14: -1194.63947743033714   -1.21349e-09   6.61117e-08 DIIS
   @DF-UKS iter  15: -1194.63947743052086   -1.83718e-10   2.25347e-08 DIIS
   @DF-UKS iter  16: -1194.63947743054541   -2.45564e-11   1.14989e-08 DIIS
   @DF-UKS iter  17: -1194.63947743054882   -3.41061e-12   6.68489e-09 DIIS
  Energy and wave function converged.


  ==> Post-Iterations <==

   @Spin Contamination Metric:   5.317229155E-03
   @S^2 Expected:                7.500000000E-01
   @S^2 Observed:                7.553172292E-01
   @S   Expected:                5.000000000E-01
   @S   Observed:                5.000000000E-01

    Orbital Energies [Eh]
    ---------------------

    Alpha Occupied:                                                       

       1Ap   -89.102481     2Ap   -89.020634     3Ap   -89.011080  
       4Ap    -8.007254     5Ap    -7.933014     6Ap    -7.922026  
       1App   -5.916402     7Ap    -5.916350     8Ap    -5.912649  
       9Ap    -5.843691     2App   -5.841049    10Ap    -5.835790  
      11Ap    -5.833446     3App   -5.829130    12Ap    -5.824863  
      13Ap    -0.754666    14Ap    -0.625527    15Ap    -0.508646  
      16Ap    -0.304403     4App   -0.283847    17Ap    -0.280905  
       5App   -0.176685    18Ap    -0.153396    19Ap    -0.148186  
       6App   -0.109291  

    Alpha Virtual:                                                        

      20Ap     0.148158    21Ap     0.150748    22Ap     0.184641  
      23Ap     0.198619     7App    0.199573    24Ap     0.209811  
       8App    0.215982     9App    0.220325    25Ap     0.229030  
      26Ap     0.230624    27Ap     0.250545    28Ap     0.270554  
      29Ap     0.323937    30Ap     0.342101    10App    0.362389  
      31Ap     0.382833    11App    0.387293    32Ap     0.424660  
      33Ap     0.437120    34Ap     0.442834    12App    0.455634  
      35Ap     0.459062    13App    0.459540    14App    0.498155  
      36Ap     0.499862    37Ap     0.511847    38Ap     0.528098  
      15App    0.544927    39Ap     0.570342    16App    0.626970  
      40Ap     0.654318    17App    0.699532    41Ap     0.710320  
      42Ap     0.718653    43Ap     0.726176    18App    0.738758  
      44Ap     0.739316    19App    0.740392    45Ap     0.745261  
      20App    0.754467    46Ap     0.763493    47Ap     0.796653  
      48Ap     0.818058    21App    0.819601    49Ap     0.828015  
      22App    0.839510    50Ap     0.845569    51Ap     0.857360  
      52Ap     0.878090    23App    0.879252    24App    0.919405  
      53Ap     0.922369    25App    0.938390    54Ap     0.976755  
      26App    0.980333    55Ap     0.982641    27App    0.996972  
      56Ap     1.022516    57Ap     1.041026    58Ap     1.043301  
      59Ap     1.122853    28App    1.129337    29App    1.166667  
      60Ap     1.192829    30App    1.226819    61Ap     1.233450  
      31App    1.301142    62Ap     1.306885    63Ap     1.316916  
      64Ap     1.351210    65Ap     1.373970    32App    1.390452  
      33App    1.397680    66Ap     1.496941    67Ap     1.507198  
      68Ap     1.574321    69Ap     1.677071    70Ap     1.971731  
      34App    1.982425    35App    2.009632    71Ap     2.019023  
      36App    2.046594    72Ap     2.051869    37App    2.061284  
      73Ap     2.066677    74Ap     2.099252    38App    2.127243  
      75Ap     2.147229    76Ap     2.171264    77Ap     2.182462  
      39App    2.188209    78Ap     2.197937    40App    2.198297  
      41App    2.220229    79Ap     2.226783    42App    2.249824  
      80Ap     2.264577    43App    2.273568    81Ap     2.310651  
      82Ap     2.331251    44App    2.346051    83Ap     2.353292  
      45App    2.360791    84Ap     2.368629    46App    2.431881  
      85Ap     2.441707    47App    2.444818    86Ap     2.454835  
      87Ap     2.474264    48App    2.478045    49App    2.523464  
      88Ap     2.562991    89Ap     2.582566    90Ap     2.632628  
      91Ap     2.649874    92Ap     2.684373    50App    2.715858  
      93Ap     2.740666    51App    2.779433    94Ap     2.892491  
      95Ap     3.776122    96Ap     3.883483    97Ap     4.959688  
      98Ap     5.373717    99Ap     5.830898  

    Beta Occupied:                                                        

       1Ap   -89.099484     2Ap   -89.018738     3Ap   -89.009578  
       4Ap    -8.004237     5Ap    -7.931088     6Ap    -7.920500  
       7Ap    -5.914329     8Ap    -5.910649     1App   -5.905709  
       9Ap    -5.842559    10Ap    -5.834440     2App   -5.834087  
      11Ap    -5.832626    12Ap    -5.823804     3App   -5.823529  
      13Ap    -0.743917    14Ap    -0.616424    15Ap    -0.488762  
      16Ap    -0.295706    17Ap    -0.274040     4App   -0.250083  
      18Ap    -0.147893    19Ap    -0.142576     5App   -0.132613  

    Beta Virtual:                                                         

       6App    0.114489    20Ap     0.147757    21Ap     0.151145  
      22Ap     0.184652    23Ap     0.200396     7App    0.200812  
      24Ap     0.210490     8App    0.215458     9App    0.222714  
      25Ap     0.229457    26Ap     0.234388    27Ap     0.251889  
      28Ap     0.275571    29Ap     0.325597    30Ap     0.343048  
      10App    0.365932    31Ap     0.384103    11App    0.395453  
      32Ap     0.425891    33Ap     0.439575    34Ap     0.445345  
      35Ap     0.462302    12App    0.462439    13App    0.463918  
      36Ap     0.501235    14App    0.501463    37Ap     0.512351  
      38Ap     0.529560    15App    0.548288    39Ap     0.572737  
      16App    0.634344    40Ap     0.656104    17App    0.705295  
      41Ap     0.711275    42Ap     0.721219    43Ap     0.727943  
      44Ap     0.740194    18App    0.746138    19App    0.748881  
      45Ap     0.748898    20App    0.761415    46Ap     0.765831  
      47Ap     0.799861    48Ap     0.820201    21App    0.827786  
      49Ap     0.834824    22App    0.845423    50Ap     0.852226  
      51Ap     0.864842    52Ap     0.885119    23App    0.888234  
      24App    0.926474    53Ap     0.928662    25App    0.950446  
      54Ap     0.979409    26App    0.982583    55Ap     0.985710  
      27App    1.001030    56Ap     1.027474    57Ap     1.044381  
      58Ap     1.047215    59Ap     1.124574    28App    1.132327  
      29App    1.171511    60Ap     1.196293    30App    1.231659  
      61Ap     1.235689    31App    1.305862    62Ap     1.307580  
      63Ap     1.318248    64Ap     1.354419    65Ap     1.376286  
      32App    1.397249    33App    1.404330    66Ap     1.506353  
      67Ap     1.508966    68Ap     1.584077    69Ap     1.693499  
      70Ap     1.988307    34App    2.002508    35App    2.024742  
      71Ap     2.035497    36App    2.060714    72Ap     2.062874  
      73Ap     2.074861    37App    2.077042    74Ap     2.102682  
      75Ap     2.148704    38App    2.152853    76Ap     2.174501  
      77Ap     2.189387    39App    2.205553    78Ap     2.206054  
      40App    2.220259    41App    2.231735    79Ap     2.235161  
      42App    2.266308    80Ap     2.272663    43App    2.301539  
      81Ap     2.316421    82Ap     2.338090    44App    2.361494  
      83Ap     2.366034    45App    2.374662    84Ap     2.380861  
      46App    2.440319    85Ap     2.448960    47App    2.461836  
      86Ap     2.463234    87Ap     2.480981    48App    2.494434  
      49App    2.542358    88Ap     2.574743    89Ap     2.590679  
      90Ap     2.637468    91Ap     2.653143    92Ap     2.688356  
      50App    2.730949    93Ap     2.746975    51App    2.798987  
      94Ap     2.894923    95Ap     3.778887    96Ap     3.887165  
      97Ap     4.968703    98Ap     5.380921    99Ap     5.840195  

    Final Occupation by Irrep:
             Ap   App 
    DOCC [    19,    5 ]
    SOCC [     0,    1 ]

  @DF-UKS Final Energy: -1194.63947743054882

   => Energetics <=

    Nuclear Repulsion Energy =            170.3775274813106080
    One-Electron Energy =               -1998.9419535487159010
    Two-Electron Energy =                 693.1706963209132937
    DFT Exchange-Correlation Energy =     -59.4463761765927430
    Empirical Dispersion Energy =           0.0000000000000000
    VV10 Nonlocal Energy =                  0.2006284925361493
    Total Energy =                      -1194.6394774305485953

  UHF NO Occupations:
  HONO-2 :    4App 1.9993551
  HONO-1 :    5App 1.9983929
  HONO-0 :    6App 1.0000000
  LUNO+0 :    7App 0.0016071
  LUNO+1 :    8App 0.0006449
  LUNO+2 :   20 Ap 0.0001844
  LUNO+3 :   21 Ap 0.0000732


Computation Completed


Properties will be evaluated at   0.000000,   0.000000,   0.000000 [a0]

Properties computed using the SCF density matrix

  Nuclear Dipole Moment: [e a0]
     X:     0.0000      Y:     0.0000      Z:     0.0000

  Electronic Dipole Moment: [e a0]
     X:     0.5100      Y:     0.0074      Z:     0.0000

  Dipole Moment: [e a0]
     X:     0.5100      Y:     0.0074      Z:     0.0000     Total:     0.5101

  Dipole Moment: [D]
     X:     1.2963      Y:     0.0187      Z:     0.0000     Total:     1.2964


*** tstop() called on c1-9.compute.lan at Wed Feb  3 09:24:59 2021
Module time:
	user time   =     125.09 seconds =       2.08 minutes
	system time =       1.34 seconds =       0.02 minutes
	total time  =        127 seconds =       2.12 minutes
Total time:
	user time   =     375.06 seconds =       6.25 minutes
	system time =       4.56 seconds =       0.08 minutes
	total time  =        380 seconds =       6.33 minutes

  //>>>>>>>>>>>>>>>>>>>>>>>>>>>>>>>>>>>//
  //    Loading displacement 4 of 7    //
  //<<<<<<<<<<<<<<<<<<<<<<<<<<<<<<<<<<<//

*** tstart() called on c1-9.compute.lan
*** at Wed Feb  3 09:24:59 2021

   => Loading Basis Set <=

    Name: AUG-CC-PVTZ
    Role: ORBITAL
    Keyword: BASIS
    atoms 1-3 entry S          line   906 file /apps/gb/PSI4/1.4.0/share/psi4/basis/aug-cc-pvtz.gbs 


         ---------------------------------------------------------
                                   SCF
               by Justin Turney, Rob Parrish, Andy Simmonett
                          and Daniel G. A. Smith
                              UKS Reference
                        1 Threads,   9536 MiB Core
         ---------------------------------------------------------

  ==> Geometry <==

    Molecular point group: cs
    Full point group: Cs

    Geometry (in Angstrom), charge = -1, multiplicity = 2:

       Center              X                  Y                   Z               Mass       
    ------------   -----------------  -----------------  -----------------  -----------------
         S            0.606217782649     0.316300280266     0.000000000000    31.972071174400
         S            0.606298365760    -1.683102090053     0.000000000000    31.972071174400
         S           -1.212516148409     1.366801809787     0.000000000000    31.972071174400

  Running in cs symmetry.

  Rotational constants: A =      0.75455  B =      0.08359  C =      0.07526 [cm^-1]
  Rotational constants: A =  22620.87925  B =   2506.02908  C =   2256.09058 [MHz]
  Nuclear repulsion =  170.403339179731688

  Charge       = -1
  Multiplicity = 2
  Electrons    = 49
  Nalpha       = 25
  Nbeta        = 24

  ==> Algorithm <==

  SCF Algorithm Type is DF.
  DIIS enabled.
  MOM disabled.
  Fractional occupation disabled.
  Guess Type is SAD.
  Energy threshold   = 1.00e-08
  Density threshold  = 1.00e-08
  Integral threshold = 0.00e+00

  ==> Primary Basis <==

  Basis Set: AUG-CC-PVTZ
    Blend: AUG-CC-PVTZ
    Number of shells: 48
    Number of basis function: 150
    Number of Cartesian functions: 177
    Spherical Harmonics?: true
    Max angular momentum: 3

  ==> DFT Potential <==

   => Composite Functional: WB97M-V <= 

    wB97M-V Hyb-GGA Exchange-Correlation Functional

    N. Mardirossian and M. Head-Gordon, J. Chem. Phys. 144, 214110 (2016)

    Deriv               =              1
    GGA                 =           TRUE
    Meta                =           TRUE

    Exchange Hybrid     =           TRUE
    MP2 Hybrid          =          FALSE

   => Exchange-Correlation Functionals <=

    1.0000   wB97M-V exchange-correlation functional

   => Exact (HF) Exchange <=

    0.8500            HF,LR [omega = 0.3000]
    0.1500               HF 

   => VV10 Non-Local Parameters <=

    VV10 B              =     6.0000E+00
    VV10 C              =     1.0000E-02

   => Molecular Quadrature <=

    Radial Scheme          =       TREUTLER
    Pruning Scheme         =           NONE
    Nuclear Scheme         =       TREUTLER

    BS radius alpha        =              1
    Pruning alpha          =              1
    Radial Points          =             99
    Spherical Points       =            590
    Total Points           =         169930
    Total Blocks           =           1389
    Max Points             =            256
    Max Functions          =            150
    Weights Tolerance      =       1.00E-15

   => Loading Basis Set <=

    Name: (AUG-CC-PVTZ AUX)
    Role: JKFIT
    Keyword: DF_BASIS_SCF
    atoms 1-3 entry S          line   730 file /apps/gb/PSI4/1.4.0/share/psi4/basis/aug-cc-pvtz-jkfit.gbs 

  ==> Pre-Iterations <==

   -------------------------------------------------------
    Irrep   Nso     Nmo     Nalpha   Nbeta   Ndocc  Nsocc
   -------------------------------------------------------
     A'        99      99       0       0       0       0
     A"        51      51       0       0       0       0
   -------------------------------------------------------
    Total     150     150      25      24      24       1
   -------------------------------------------------------

  ==> Integral Setup <==

  ==> DiskDFJK: Density-Fitted J/K Matrices <==

    J tasked:                  Yes
    K tasked:                  Yes
    wK tasked:                 Yes
    Omega:               3.000E-01
    OpenMP threads:              1
    Integrals threads:           1
    Memory [MiB]:             5488
    Algorithm:                Core
    Integral Cache:           NONE
    Schwarz Cutoff:          1E-12
    Fitting Condition:       1E-10

   => Auxiliary Basis Set <=

  Basis Set: (AUG-CC-PVTZ AUX)
    Blend: AUG-CC-PVTZ-JKFIT
    Number of shells: 126
    Number of basis function: 438
    Number of Cartesian functions: 540
    Spherical Harmonics?: true
    Max angular momentum: 4

  Cached 100.0% of DFT collocation blocks in 1.625 [GiB].

  Minimum eigenvalue in the overlap matrix is 2.2887036555E-04.
  Using Symmetric Orthogonalization.

  SCF Guess: Superposition of Atomic Densities via on-the-fly atomic UHF.

  ==> Iterations <==

                           Total Energy        Delta E     RMS |[F,P]|

   @DF-UKS iter SAD: -1194.00692595964711   -1.19401e+03   0.00000e+00 
   @DF-UKS iter   1: -1194.54549038774894   -5.38564e-01   3.87100e-03 DIIS
   @DF-UKS iter   2: -1194.59623309357539   -5.07427e-02   2.72621e-03 DIIS
   @DF-UKS iter   3: -1194.63643679540655   -4.02037e-02   6.48514e-04 DIIS
   @DF-UKS iter   4: -1194.63922551267160   -2.78872e-03   1.16179e-04 DIIS
   @DF-UKS iter   5: -1194.63942816504732   -2.02652e-04   4.88304e-05 DIIS
   @DF-UKS iter   6: -1194.63946522381411   -3.70588e-05   1.86955e-05 DIIS
   @DF-UKS iter   7: -1194.63947323135881   -8.00754e-06   1.11897e-05 DIIS
   @DF-UKS iter   8: -1194.63947685131825   -3.61996e-06   5.24726e-06 DIIS
   @DF-UKS iter   9: -1194.63947900114636   -2.14983e-06   3.38984e-06 DIIS
   @DF-UKS iter  10: -1194.63947997736341   -9.76217e-07   2.09748e-06 DIIS
   @DF-UKS iter  11: -1194.63948049140117   -5.14038e-07   1.15297e-06 DIIS
   @DF-UKS iter  12: -1194.63948067094839   -1.79547e-07   3.87362e-07 DIIS
   @DF-UKS iter  13: -1194.63948068568243   -1.47340e-08   1.46608e-07 DIIS
   @DF-UKS iter  14: -1194.63948068688478   -1.20235e-09   6.58466e-08 DIIS
   @DF-UKS iter  15: -1194.63948068706577   -1.80989e-10   2.24528e-08 DIIS
   @DF-UKS iter  16: -1194.63948068709169   -2.59206e-11   1.14116e-08 DIIS
   @DF-UKS iter  17: -1194.63948068709351   -1.81899e-12   6.65708e-09 DIIS
  Energy and wave function converged.


  ==> Post-Iterations <==

   @Spin Contamination Metric:   5.316265845E-03
   @S^2 Expected:                7.500000000E-01
   @S^2 Observed:                7.553162658E-01
   @S   Expected:                5.000000000E-01
   @S   Observed:                5.000000000E-01

    Orbital Energies [Eh]
    ---------------------

    Alpha Occupied:                                                       

       1Ap   -89.102437     2Ap   -89.020625     3Ap   -89.011038  
       4Ap    -8.007220     5Ap    -7.933017     6Ap    -7.921989  
       1App   -5.916368     7Ap    -5.916315     8Ap    -5.912613  
       9Ap    -5.843691     2App   -5.841053    10Ap    -5.835794  
      11Ap    -5.833408     3App   -5.829091    12Ap    -5.824826  
      13Ap    -0.754771    14Ap    -0.625576    15Ap    -0.508580  
      16Ap    -0.304448     4App   -0.283897    17Ap    -0.280935  
       5App   -0.176695    18Ap    -0.153405    19Ap    -0.148152  
       6App   -0.109230  

    Alpha Virtual:                                                        

      20Ap     0.148158    21Ap     0.150767    22Ap     0.184654  
      23Ap     0.198614     7App    0.199568    24Ap     0.209823  
       8App    0.215983     9App    0.220340    25Ap     0.229050  
      26Ap     0.230648    27Ap     0.250539    28Ap     0.270692  
      29Ap     0.323938    30Ap     0.342127    10App    0.362372  
      31Ap     0.382789    11App    0.387313    32Ap     0.424652  
      33Ap     0.437123    34Ap     0.442892    12App    0.455687  
      35Ap     0.459109    13App    0.459516    14App    0.498174  
      36Ap     0.499852    37Ap     0.511884    38Ap     0.528137  
      15App    0.544972    39Ap     0.570375    16App    0.626955  
      40Ap     0.654276    17App    0.699497    41Ap     0.710299  
      42Ap     0.718622    43Ap     0.726155    18App    0.738763  
      44Ap     0.739331    19App    0.740449    45Ap     0.745292  
      20App    0.754493    46Ap     0.763463    47Ap     0.796702  
      48Ap     0.818053    21App    0.819605    49Ap     0.828045  
      22App    0.839495    50Ap     0.845554    51Ap     0.857413  
      52Ap     0.878195    23App    0.879266    24App    0.919395  
      53Ap     0.922378    25App    0.938516    54Ap     0.976762  
      26App    0.980315    55Ap     0.982696    27App    0.997075  
      56Ap     1.022673    57Ap     1.041097    58Ap     1.043443  
      59Ap     1.122924    28App    1.129301    29App    1.166746  
      60Ap     1.192895    30App    1.226978    61Ap     1.233639  
      31App    1.301206    62Ap     1.306872    63Ap     1.317071  
      64Ap     1.351343    65Ap     1.374040    32App    1.390551  
      33App    1.397855    66Ap     1.497145    67Ap     1.507378  
      68Ap     1.574407    69Ap     1.677121    70Ap     1.971704  
      34App    1.982413    35App    2.009649    71Ap     2.019000  
      36App    2.046559    72Ap     2.051909    37App    2.061316  
      73Ap     2.066626    74Ap     2.099277    38App    2.127197  
      75Ap     2.147222    76Ap     2.171225    77Ap     2.182417  
      39App    2.188194    78Ap     2.197944    40App    2.198401  
      41App    2.220291    79Ap     2.226722    42App    2.249745  
      80Ap     2.264565    43App    2.273574    81Ap     2.310558  
      82Ap     2.331296    44App    2.346063    83Ap     2.353303  
      45App    2.360822    84Ap     2.368610    46App    2.431869  
      85Ap     2.441748    47App    2.444931    86Ap     2.454887  
      87Ap     2.474441    48App    2.478285    49App    2.523761  
      88Ap     2.563151    89Ap     2.582835    90Ap     2.632862  
      91Ap     2.650115    92Ap     2.684461    50App    2.715996  
      93Ap     2.741584    51App    2.779859    94Ap     2.893021  
      95Ap     3.776330    96Ap     3.883899    97Ap     4.960883  
      98Ap     5.374129    99Ap     5.831005  

    Beta Occupied:                                                        

       1Ap   -89.099440     2Ap   -89.018728     3Ap   -89.009538  
       4Ap    -8.004202     5Ap    -7.931092     6Ap    -7.920463  
       7Ap    -5.914294     8Ap    -5.910612     1App   -5.905675  
       9Ap    -5.842559    10Ap    -5.834445     2App   -5.834090  
      11Ap    -5.832589    12Ap    -5.823768     3App   -5.823493  
      13Ap    -0.744024    14Ap    -0.616477    15Ap    -0.488695  
      16Ap    -0.295748    17Ap    -0.274072     4App   -0.250140  
      18Ap    -0.147909    19Ap    -0.142533     5App   -0.132634  

    Beta Virtual:                                                         

       6App    0.114554    20Ap     0.147754    21Ap     0.151164  
      22Ap     0.184665    23Ap     0.200387     7App    0.200806  
      24Ap     0.210501     8App    0.215456     9App    0.222729  
      25Ap     0.229473    26Ap     0.234417    27Ap     0.251883  
      28Ap     0.275707    29Ap     0.325598    30Ap     0.343076  
      10App    0.365915    31Ap     0.384058    11App    0.395474  
      32Ap     0.425882    33Ap     0.439578    34Ap     0.445403  
      35Ap     0.462349    12App    0.462472    13App    0.463915  
      36Ap     0.501223    14App    0.501481    37Ap     0.512388  
      38Ap     0.529601    15App    0.548338    39Ap     0.572771  
      16App    0.634327    40Ap     0.656062    17App    0.705260  
      41Ap     0.711266    42Ap     0.721178    43Ap     0.727920  
      44Ap     0.740210    18App    0.746146    45Ap     0.748926  
      19App    0.748935    20App    0.761435    46Ap     0.765801  
      47Ap     0.799905    48Ap     0.820198    21App    0.827797  
      49Ap     0.834855    22App    0.845403    50Ap     0.852211  
      51Ap     0.864895    52Ap     0.885225    23App    0.888244  
      24App    0.926466    53Ap     0.928668    25App    0.950573  
      54Ap     0.979413    26App    0.982566    55Ap     0.985769  
      27App    1.001134    56Ap     1.027617    57Ap     1.044422  
      58Ap     1.047397    59Ap     1.124648    28App    1.132292  
      29App    1.171590    60Ap     1.196360    30App    1.231819  
      61Ap     1.235878    31App    1.305931    62Ap     1.307564  
      63Ap     1.318407    64Ap     1.354553    65Ap     1.376361  
      32App    1.397354    33App    1.404506    66Ap     1.506559  
      67Ap     1.509154    68Ap     1.584160    69Ap     1.693538  
      70Ap     1.988286    34App    2.002495    35App    2.024754  
      71Ap     2.035475    36App    2.060666    72Ap     2.062885  
      73Ap     2.074844    37App    2.077071    74Ap     2.102707  
      75Ap     2.148697    38App    2.152808    76Ap     2.174466  
      77Ap     2.189364    39App    2.205568    78Ap     2.206037  
      40App    2.220355    41App    2.231787    79Ap     2.235102  
      42App    2.266215    80Ap     2.272643    43App    2.301565  
      81Ap     2.316323    82Ap     2.338141    44App    2.361509  
      83Ap     2.366042    45App    2.374686    84Ap     2.380847  
      46App    2.440302    85Ap     2.448986    47App    2.461944  
      86Ap     2.463298    87Ap     2.481158    48App    2.494660  
      49App    2.542675    88Ap     2.574891    89Ap     2.590944  
      90Ap     2.637715    91Ap     2.653366    92Ap     2.688454  
      50App    2.731081    93Ap     2.747906    51App    2.799422  
      94Ap     2.895451    95Ap     3.779096    96Ap     3.887585  
      97Ap     4.969894    98Ap     5.381333    99Ap     5.840303  

    Final Occupation by Irrep:
             Ap   App 
    DOCC [    19,    5 ]
    SOCC [     0,    1 ]

  @DF-UKS Final Energy: -1194.63948068709351

   => Energetics <=

    Nuclear Repulsion Energy =            170.4033391797316881
    One-Electron Energy =               -1998.9938381429708443
    Two-Electron Energy =                 693.1969889558066598
    DFT Exchange-Correlation Energy =     -59.4465982705540341
    Empirical Dispersion Energy =           0.0000000000000000
    VV10 Nonlocal Energy =                  0.2006275908927617
    Total Energy =                      -1194.6394806870935099

  UHF NO Occupations:
  HONO-2 :    4App 1.9993555
  HONO-1 :    5App 1.9983930
  HONO-0 :    6App 1.0000000
  LUNO+0 :    7App 0.0016070
  LUNO+1 :    8App 0.0006445
  LUNO+2 :   20 Ap 0.0001845
  LUNO+3 :   21 Ap 0.0000732


Computation Completed


Properties will be evaluated at   0.000000,   0.000000,   0.000000 [a0]

Properties computed using the SCF density matrix

  Nuclear Dipole Moment: [e a0]
     X:     0.0000      Y:     0.0000      Z:     0.0000

  Electronic Dipole Moment: [e a0]
     X:     0.5103      Y:     0.0063      Z:     0.0000

  Dipole Moment: [e a0]
     X:     0.5103      Y:     0.0063      Z:     0.0000     Total:     0.5103

  Dipole Moment: [D]
     X:     1.2970      Y:     0.0161      Z:     0.0000     Total:     1.2971


*** tstop() called on c1-9.compute.lan at Wed Feb  3 09:27:04 2021
Module time:
	user time   =     124.63 seconds =       2.08 minutes
	system time =       0.78 seconds =       0.01 minutes
	total time  =        125 seconds =       2.08 minutes
Total time:
	user time   =     499.70 seconds =       8.33 minutes
	system time =       5.34 seconds =       0.09 minutes
	total time  =        505 seconds =       8.42 minutes

  //>>>>>>>>>>>>>>>>>>>>>>>>>>>>>>>>>>>//
  //    Loading displacement 5 of 7    //
  //<<<<<<<<<<<<<<<<<<<<<<<<<<<<<<<<<<<//

*** tstart() called on c1-9.compute.lan
*** at Wed Feb  3 09:27:04 2021

   => Loading Basis Set <=

    Name: AUG-CC-PVTZ
    Role: ORBITAL
    Keyword: BASIS
    atoms 1-3 entry S          line   906 file /apps/gb/PSI4/1.4.0/share/psi4/basis/aug-cc-pvtz.gbs 


         ---------------------------------------------------------
                                   SCF
               by Justin Turney, Rob Parrish, Andy Simmonett
                          and Daniel G. A. Smith
                              UKS Reference
                        1 Threads,   9536 MiB Core
         ---------------------------------------------------------

  ==> Geometry <==

    Molecular point group: cs
    Full point group: Cs

    Geometry (in Angstrom), charge = -1, multiplicity = 2:

       Center              X                  Y                   Z               Mass       
    ------------   -----------------  -----------------  -----------------  -----------------
         S            0.606217782649     0.317033053067     0.000000000000    31.972071174400
         S            0.606137199538    -1.683564576614     0.000000000000    31.972071174400
         S           -1.212354982187     1.366531523547     0.000000000000    31.972071174400

  Running in cs symmetry.

  Rotational constants: A =      0.75370  B =      0.08359  C =      0.07525 [cm^-1]
  Rotational constants: A =  22595.43469  B =   2506.06514  C =   2255.86644 [MHz]
  Nuclear repulsion =  170.382552772002526

  Charge       = -1
  Multiplicity = 2
  Electrons    = 49
  Nalpha       = 25
  Nbeta        = 24

  ==> Algorithm <==

  SCF Algorithm Type is DF.
  DIIS enabled.
  MOM disabled.
  Fractional occupation disabled.
  Guess Type is SAD.
  Energy threshold   = 1.00e-08
  Density threshold  = 1.00e-08
  Integral threshold = 0.00e+00

  ==> Primary Basis <==

  Basis Set: AUG-CC-PVTZ
    Blend: AUG-CC-PVTZ
    Number of shells: 48
    Number of basis function: 150
    Number of Cartesian functions: 177
    Spherical Harmonics?: true
    Max angular momentum: 3

  ==> DFT Potential <==

   => Composite Functional: WB97M-V <= 

    wB97M-V Hyb-GGA Exchange-Correlation Functional

    N. Mardirossian and M. Head-Gordon, J. Chem. Phys. 144, 214110 (2016)

    Deriv               =              1
    GGA                 =           TRUE
    Meta                =           TRUE

    Exchange Hybrid     =           TRUE
    MP2 Hybrid          =          FALSE

   => Exchange-Correlation Functionals <=

    1.0000   wB97M-V exchange-correlation functional

   => Exact (HF) Exchange <=

    0.8500            HF,LR [omega = 0.3000]
    0.1500               HF 

   => VV10 Non-Local Parameters <=

    VV10 B              =     6.0000E+00
    VV10 C              =     1.0000E-02

   => Molecular Quadrature <=

    Radial Scheme          =       TREUTLER
    Pruning Scheme         =           NONE
    Nuclear Scheme         =       TREUTLER

    BS radius alpha        =              1
    Pruning alpha          =              1
    Radial Points          =             99
    Spherical Points       =            590
    Total Points           =         169941
    Total Blocks           =           1390
    Max Points             =            256
    Max Functions          =            150
    Weights Tolerance      =       1.00E-15

   => Loading Basis Set <=

    Name: (AUG-CC-PVTZ AUX)
    Role: JKFIT
    Keyword: DF_BASIS_SCF
    atoms 1-3 entry S          line   730 file /apps/gb/PSI4/1.4.0/share/psi4/basis/aug-cc-pvtz-jkfit.gbs 

  ==> Pre-Iterations <==

   -------------------------------------------------------
    Irrep   Nso     Nmo     Nalpha   Nbeta   Ndocc  Nsocc
   -------------------------------------------------------
     A'        99      99       0       0       0       0
     A"        51      51       0       0       0       0
   -------------------------------------------------------
    Total     150     150      25      24      24       1
   -------------------------------------------------------

  ==> Integral Setup <==

  ==> DiskDFJK: Density-Fitted J/K Matrices <==

    J tasked:                  Yes
    K tasked:                  Yes
    wK tasked:                 Yes
    Omega:               3.000E-01
    OpenMP threads:              1
    Integrals threads:           1
    Memory [MiB]:             5488
    Algorithm:                Core
    Integral Cache:           NONE
    Schwarz Cutoff:          1E-12
    Fitting Condition:       1E-10

   => Auxiliary Basis Set <=

  Basis Set: (AUG-CC-PVTZ AUX)
    Blend: AUG-CC-PVTZ-JKFIT
    Number of shells: 126
    Number of basis function: 438
    Number of Cartesian functions: 540
    Spherical Harmonics?: true
    Max angular momentum: 4

  Cached 100.0% of DFT collocation blocks in 1.625 [GiB].

  Minimum eigenvalue in the overlap matrix is 2.2943965318E-04.
  Using Symmetric Orthogonalization.

  SCF Guess: Superposition of Atomic Densities via on-the-fly atomic UHF.

  ==> Iterations <==

                           Total Energy        Delta E     RMS |[F,P]|

   @DF-UKS iter SAD: -1194.00608498516999   -1.19401e+03   0.00000e+00 
   @DF-UKS iter   1: -1194.54555082265233   -5.39466e-01   3.87070e-03 DIIS
   @DF-UKS iter   2: -1194.59630345410778   -5.07526e-02   2.72567e-03 DIIS
   @DF-UKS iter   3: -1194.63647692938139   -4.01735e-02   6.47965e-04 DIIS
   @DF-UKS iter   4: -1194.63925942396008   -2.78249e-03   1.16059e-04 DIIS
   @DF-UKS iter   5: -1194.63946172233545   -2.02298e-04   4.86619e-05 DIIS
   @DF-UKS iter   6: -1194.63949858309888   -3.68608e-05   1.85853e-05 DIIS
   @DF-UKS iter   7: -1194.63950649102844   -7.90793e-06   1.11351e-05 DIIS
   @DF-UKS iter   8: -1194.63951004293995   -3.55191e-06   5.19849e-06 DIIS
   @DF-UKS iter   9: -1194.63951213836253   -2.09542e-06   3.35053e-06 DIIS
   @DF-UKS iter  10: -1194.63951308376909   -9.45407e-07   2.07322e-06 DIIS
   @DF-UKS iter  11: -1194.63951358407348   -5.00304e-07   1.14727e-06 DIIS
   @DF-UKS iter  12: -1194.63951376251953   -1.78446e-07   3.87915e-07 DIIS
   @DF-UKS iter  13: -1194.63951377746548   -1.49460e-08   1.46439e-07 DIIS
   @DF-UKS iter  14: -1194.63951377867693   -1.21145e-09   6.59151e-08 DIIS
   @DF-UKS iter  15: -1194.63951377886019   -1.83263e-10   2.24886e-08 DIIS
   @DF-UKS iter  16: -1194.63951377888429   -2.41016e-11   1.15819e-08 DIIS
   @DF-UKS iter  17: -1194.63951377888816   -3.86535e-12   6.66547e-09 DIIS
  Energy and wave function converged.


  ==> Post-Iterations <==

   @Spin Contamination Metric:   5.317932161E-03
   @S^2 Expected:                7.500000000E-01
   @S^2 Observed:                7.553179322E-01
   @S   Expected:                5.000000000E-01
   @S   Observed:                5.000000000E-01

    Orbital Energies [Eh]
    ---------------------

    Alpha Occupied:                                                       

       1Ap   -89.102476     2Ap   -89.020562     3Ap   -89.011143  
       4Ap    -8.007247     5Ap    -7.932932     6Ap    -7.922099  
       1App   -5.916395     7Ap    -5.916343     8Ap    -5.912642  
       9Ap    -5.843614     2App   -5.840961    10Ap    -5.835709  
      11Ap    -5.833514     3App   -5.829211    12Ap    -5.824936  
      13Ap    -0.754622    14Ap    -0.625588    15Ap    -0.508629  
      16Ap    -0.304397     4App   -0.283821    17Ap    -0.280890  
       5App   -0.176711    18Ap    -0.153386    19Ap    -0.148219  
       6App   -0.109279  

    Alpha Virtual:                                                        

      20Ap     0.148165    21Ap     0.150751    22Ap     0.184647  
      23Ap     0.198651     7App    0.199582    24Ap     0.209792  
       8App    0.215975     9App    0.220328    25Ap     0.229040  
      26Ap     0.230643    27Ap     0.250544    28Ap     0.270557  
      29Ap     0.323938    30Ap     0.342102    10App    0.362394  
      31Ap     0.382829    11App    0.387296    32Ap     0.424659  
      33Ap     0.437150    34Ap     0.442832    12App    0.455654  
      35Ap     0.459068    13App    0.459529    14App    0.498163  
      36Ap     0.499870    37Ap     0.511855    38Ap     0.528094  
      15App    0.544941    39Ap     0.570355    16App    0.626983  
      40Ap     0.654319    17App    0.699520    41Ap     0.710340  
      42Ap     0.718687    43Ap     0.726141    18App    0.738765  
      44Ap     0.739327    19App    0.740415    45Ap     0.745265  
      20App    0.754479    46Ap     0.763476    47Ap     0.796680  
      48Ap     0.818093    21App    0.819632    49Ap     0.827978  
      22App    0.839460    50Ap     0.845564    51Ap     0.857378  
      52Ap     0.878088    23App    0.879255    24App    0.919407  
      53Ap     0.922380    25App    0.938413    54Ap     0.976781  
      26App    0.980327    55Ap     0.982633    27App    0.996994  
      56Ap     1.022669    57Ap     1.041025    58Ap     1.043215  
      59Ap     1.122873    28App    1.129326    29App    1.166703  
      60Ap     1.192876    30App    1.226856    61Ap     1.233472  
      31App    1.301165    62Ap     1.306933    63Ap     1.316896  
      64Ap     1.351264    65Ap     1.373943    32App    1.390472  
      33App    1.397722    66Ap     1.497026    67Ap     1.507245  
      68Ap     1.574336    69Ap     1.677121    70Ap     1.971736  
      34App    1.982459    35App    2.009692    71Ap     2.019050  
      36App    2.046674    72Ap     2.051901    37App    2.061278  
      73Ap     2.066876    74Ap     2.099043    38App    2.127320  
      75Ap     2.147369    76Ap     2.171244    77Ap     2.182487  
      39App    2.188177    78Ap     2.197813    40App    2.198159  
      41App    2.220182    79Ap     2.226689    42App    2.249845  
      80Ap     2.264542    43App    2.273562    81Ap     2.310641  
      82Ap     2.331271    44App    2.346113    83Ap     2.353263  
      45App    2.360730    84Ap     2.368597    46App    2.431874  
      85Ap     2.441759    47App    2.445085    86Ap     2.454963  
      87Ap     2.474306    48App    2.477854    49App    2.523427  
      88Ap     2.563083    89Ap     2.583391    90Ap     2.632629  
      91Ap     2.649840    92Ap     2.684420    50App    2.716332  
      93Ap     2.739846    51App    2.779094    94Ap     2.892523  
      95Ap     3.777075    96Ap     3.883312    97Ap     4.960027  
      98Ap     5.373563    99Ap     5.830619  

    Beta Occupied:                                                        

       1Ap   -89.099479     2Ap   -89.018669     3Ap   -89.009639  
       4Ap    -8.004230     5Ap    -7.931009     6Ap    -7.920570  
       7Ap    -5.914322     8Ap    -5.910642     1App   -5.905703  
       9Ap    -5.842484    10Ap    -5.834361     2App   -5.834008  
      11Ap    -5.832691    12Ap    -5.823875     3App   -5.823600  
      13Ap    -0.743873    14Ap    -0.616486    15Ap    -0.488744  
      16Ap    -0.295702    17Ap    -0.274024     4App   -0.250068  
      18Ap    -0.147898    19Ap    -0.142590     5App   -0.132628  

    Beta Virtual:                                                         

       6App    0.114498    20Ap     0.147764    21Ap     0.151147  
      22Ap     0.184657    23Ap     0.200430     7App    0.200824  
      24Ap     0.210468     8App    0.215447     9App    0.222718  
      25Ap     0.229462    26Ap     0.234417    27Ap     0.251889  
      28Ap     0.275572    29Ap     0.325598    30Ap     0.343048  
      10App    0.365937    31Ap     0.384098    11App    0.395455  
      32Ap     0.425890    33Ap     0.439603    34Ap     0.445345  
      35Ap     0.462309    12App    0.462459    13App    0.463910  
      36Ap     0.501244    14App    0.501472    37Ap     0.512358  
      38Ap     0.529556    15App    0.548304    39Ap     0.572750  
      16App    0.634357    40Ap     0.656105    17App    0.705282  
      41Ap     0.711295    42Ap     0.721253    43Ap     0.727907  
      44Ap     0.740198    18App    0.746150    19App    0.748899  
      45Ap     0.748907    20App    0.761429    46Ap     0.765813  
      47Ap     0.799888    48Ap     0.820218    21App    0.827814  
      49Ap     0.834805    22App    0.845379    50Ap     0.852213  
      51Ap     0.864875    52Ap     0.885113    23App    0.888238  
      24App    0.926476    53Ap     0.928672    25App    0.950467  
      54Ap     0.979426    26App    0.982575    55Ap     0.985712  
      27App    1.001055    56Ap     1.027634    57Ap     1.044391  
      58Ap     1.047111    59Ap     1.124593    28App    1.132316  
      29App    1.171547    60Ap     1.196344    30App    1.231695  
      61Ap     1.235709    31App    1.305886    62Ap     1.307627  
      63Ap     1.318228    64Ap     1.354474    65Ap     1.376259  
      32App    1.397278    33App    1.404362    66Ap     1.506448  
      67Ap     1.509012    68Ap     1.584084    69Ap     1.693551  
      70Ap     1.988312    34App    2.002542    35App    2.024802  
      71Ap     2.035508    36App    2.060799    72Ap     2.063017  
      73Ap     2.074966    37App    2.077035    74Ap     2.102473  
      75Ap     2.148837    38App    2.152914    76Ap     2.174474  
      77Ap     2.189344    39App    2.205475    78Ap     2.206006  
      40App    2.220162    41App    2.231698    79Ap     2.235056  
      42App    2.266323    80Ap     2.272632    43App    2.301536  
      81Ap     2.316412    82Ap     2.338088    44App    2.361535  
      83Ap     2.366021    45App    2.374625    84Ap     2.380842  
      46App    2.440320    85Ap     2.449032    47App    2.462106  
      86Ap     2.463370    87Ap     2.481005    48App    2.494253  
      49App    2.542306    88Ap     2.574856    89Ap     2.591489  
      90Ap     2.637473    91Ap     2.653101    92Ap     2.688402  
      50App    2.731430    93Ap     2.746145    51App    2.798640  
      94Ap     2.894952    95Ap     3.779842    96Ap     3.886992  
      97Ap     4.969047    98Ap     5.380763    99Ap     5.839916  

    Final Occupation by Irrep:
             Ap   App 
    DOCC [    19,    5 ]
    SOCC [     0,    1 ]

  @DF-UKS Final Energy: -1194.63951377888816

   => Energetics <=

[...]
  ==> DiskDFJK: Density-Fitted J/K Matrices <==

    J tasked:                  Yes
    K tasked:                  Yes
    wK tasked:                 Yes
    Omega:               3.000E-01
    OpenMP threads:              1
    Integrals threads:           1
    Memory [MiB]:             5478
    Algorithm:                Core
    Integral Cache:           NONE
    Schwarz Cutoff:          1E-12
    Fitting Condition:       1E-10

   => Auxiliary Basis Set <=

  Basis Set: (AUG-CC-PVTZ AUX)
    Blend: AUG-CC-PVTZ-JKFIT
    Number of shells: 126
    Number of basis function: 438
    Number of Cartesian functions: 540
    Spherical Harmonics?: true
    Max angular momentum: 4

  Cached 100.0% of DFT collocation blocks in 1.635 [GiB].

  Minimum eigenvalue in the overlap matrix is 2.1658132411E-04.
  Using Symmetric Orthogonalization.

  SCF Guess: Superposition of Atomic Densities via on-the-fly atomic UHF.

  ==> Iterations <==

                           Total Energy        Delta E     RMS |[F,P]|

   @DF-UKS iter SAD: -1194.14494258536411   -1.19414e+03   0.00000e+00 
   @DF-UKS iter   1: -1194.54937044402641   -4.04428e-01   3.90080e-03 DIIS
   @DF-UKS iter   2: -1194.60515761745751   -5.57872e-02   2.65232e-03 DIIS
   @DF-UKS iter   3: -1194.64207624340088   -3.69186e-02   5.66787e-04 DIIS
   @DF-UKS iter   4: -1194.64411904457961   -2.04280e-03   1.16006e-04 DIIS
   @DF-UKS iter   5: -1194.64429535562249   -1.76311e-04   4.39047e-05 DIIS
   @DF-UKS iter   6: -1194.64432236123162   -2.70056e-05   1.16228e-05 DIIS
   @DF-UKS iter   7: -1194.64432558811882   -3.22689e-06   3.97469e-06 DIIS
   @DF-UKS iter   8: -1194.64432624106144   -6.52943e-07   1.75726e-06 DIIS
   @DF-UKS iter   9: -1194.64432636077299   -1.19712e-07   5.38819e-07 DIIS
   @DF-UKS iter  10: -1194.64432637463233   -1.38593e-08   2.31728e-07 DIIS
   @DF-UKS iter  11: -1194.64432637575669   -1.12436e-09   1.38234e-07 DIIS
   @DF-UKS iter  12: -1194.64432637618029   -4.23597e-10   3.71103e-08 DIIS
   @DF-UKS iter  13: -1194.64432637624350   -6.32099e-11   1.14464e-08 DIIS
   @DF-UKS iter  14: -1194.64432637624918   -5.68434e-12   5.00051e-09 DIIS
   @DF-UKS iter  15: -1194.64432637624964   -4.54747e-13   3.32312e-09 DIIS
   @DF-UKS iter  16: -1194.64432637625100   -1.36424e-12   2.20323e-09 DIIS
   @DF-UKS iter  17: -1194.64432637625123   -2.27374e-13   1.27975e-09 DIIS
   @DF-UKS iter  18: -1194.64432637625055    6.82121e-13   4.99431e-10 DIIS
   @DF-UKS iter  19: -1194.64432637625123   -6.82121e-13   1.99063e-10 DIIS
   @DF-UKS iter  20: -1194.64432637625191   -6.82121e-13   9.48508e-11 DIIS
  Energy and wave function converged.


  ==> Post-Iterations <==

   @Spin Contamination Metric:   5.083976028E-03
   @S^2 Expected:                7.500000000E-01
   @S^2 Observed:                7.550839760E-01
   @S   Expected:                5.000000000E-01
   @S   Observed:                5.000000000E-01

    Orbital Energies [Eh]
    ---------------------

    Alpha Occupied:                                                       

       1Ap   -89.097991     2Ap   -89.008340     3Ap   -89.008260  
       4Ap    -8.003969     5Ap    -7.921271     6Ap    -7.921176  
       1App   -5.913063     7Ap    -5.913023     8Ap    -5.909292  
       9Ap    -5.832051    10Ap    -5.831962     2App   -5.828858  
       3App   -5.828756    11Ap    -5.824098    12Ap    -5.824004  
      13Ap    -0.766071    14Ap    -0.628981    15Ap    -0.500844  
      16Ap    -0.304705     4App   -0.288923    17Ap    -0.287980  
       5App   -0.173934    18Ap    -0.151280    19Ap    -0.145134  
       6App   -0.101518  

    Alpha Virtual:                                                        

      20Ap     0.149849    21Ap     0.151885    22Ap     0.183482  
       7App    0.201084    23Ap     0.207531    24Ap     0.208801  
       8App    0.216682     9App    0.219107    25Ap     0.227635  
      26Ap     0.247134    27Ap     0.252600    28Ap     0.276074  
      29Ap     0.325511    30Ap     0.344619    10App    0.367659  
      11App    0.389371    31Ap     0.394785    32Ap     0.428438  
      33Ap     0.438921    34Ap     0.441422    35Ap     0.452104  
      12App    0.453539    13App    0.471174    14App    0.498326  
      36Ap     0.507592    37Ap     0.511880    38Ap     0.539384  
      15App    0.542554    39Ap     0.569384    16App    0.628121  
      40Ap     0.663611    17App    0.702982    41Ap     0.705604  
      42Ap     0.723911    43Ap     0.726998    44Ap     0.736885  
      18App    0.737963    19App    0.739227    45Ap     0.739692  
      20App    0.744143    46Ap     0.763978    47Ap     0.782728  
      21App    0.820706    48Ap     0.828408    49Ap     0.832087  
      22App    0.844910    50Ap     0.854892    51Ap     0.868197  
      52Ap     0.883987    23App    0.899239    24App    0.931692  
      53Ap     0.940781    25App    0.942866    54Ap     0.990593  
      55Ap     0.993523    26App    0.995841    27App    0.996646  
      56Ap     1.025868    57Ap     1.062064    58Ap     1.072706  
      59Ap     1.155073    28App    1.172057    29App    1.179262  
      60Ap     1.212363    30App    1.230736    61Ap     1.234410  
      31App    1.312073    62Ap     1.330309    63Ap     1.335477  
      64Ap     1.356354    32App    1.387453    65Ap     1.399105  
      33App    1.400883    66Ap     1.492379    67Ap     1.510127  
      68Ap     1.594350    69Ap     1.671596    70Ap     1.975334  
      34App    1.986609    35App    2.012106    71Ap     2.026349  
      72Ap     2.052311    36App    2.056847    37App    2.063958  
      73Ap     2.069452    74Ap     2.082659    38App    2.123285  
      75Ap     2.128542    76Ap     2.176792    77Ap     2.186933  
      78Ap     2.189567    39App    2.189983    40App    2.197581  
      41App    2.214414    79Ap     2.223525    42App    2.259460  
      80Ap     2.261142    43App    2.270546    81Ap     2.322143  
      82Ap     2.329179    44App    2.353467    45App    2.367628  
      83Ap     2.381693    84Ap     2.385638    46App    2.439922  
      85Ap     2.462952    47App    2.483220    48App    2.486708  
      86Ap     2.498281    87Ap     2.506328    49App    2.546097  
      88Ap     2.585048    89Ap     2.612662    90Ap     2.668267  
      91Ap     2.689742    92Ap     2.781716    50App    2.787524  
      51App    2.789549    93Ap     2.825109    94Ap     2.900686  
      95Ap     3.850925    96Ap     3.917642    97Ap     4.988487  
      98Ap     5.468666    99Ap     5.843805  

    Beta Occupied:                                                        

       1Ap   -89.095047     2Ap   -89.006662     3Ap   -89.006586  
       4Ap    -8.001001     5Ap    -7.919566     6Ap    -7.919473  
       7Ap    -5.911044     8Ap    -5.907344     1App   -5.902528  
       9Ap    -5.831074    10Ap    -5.830988    11Ap    -5.822908  
      12Ap    -5.822816     2App   -5.822663     3App   -5.822572  
      13Ap    -0.755983    14Ap    -0.620255    15Ap    -0.480812  
      16Ap    -0.296042    17Ap    -0.281051     4App   -0.256617  
      18Ap    -0.144890    19Ap    -0.140307     5App   -0.131440  

    Beta Virtual:                                                         

       6App    0.122333    20Ap     0.149409    21Ap     0.151785  
      22Ap     0.183142     7App    0.201798    23Ap     0.208101  
      24Ap     0.209259     8App    0.215665     9App    0.221758  
      25Ap     0.227795    26Ap     0.252230    27Ap     0.253339  
      28Ap     0.280732    29Ap     0.326967    30Ap     0.345429  
      10App    0.370717    31Ap     0.396271    11App    0.397732  
      32Ap     0.429500    33Ap     0.441458    34Ap     0.443833  
      35Ap     0.455238    12App    0.460650    13App    0.474706  
      14App    0.501197    36Ap     0.508013    37Ap     0.513247  
      38Ap     0.540672    15App    0.545122    39Ap     0.571442  
      16App    0.635130    40Ap     0.665310    41Ap     0.706439  
      17App    0.708819    42Ap     0.726392    43Ap     0.728828  
      44Ap     0.737655    45Ap     0.743683    18App    0.746093  
      19App    0.746315    20App    0.751059    46Ap     0.765686  
      47Ap     0.785748    21App    0.828715    48Ap     0.834641  
      49Ap     0.835461    22App    0.851225    50Ap     0.859402  
      51Ap     0.876988    52Ap     0.891790    23App    0.908902  
      24App    0.937669    53Ap     0.945577    25App    0.954571  
      54Ap     0.995117    55Ap     0.996116    26App    0.998261  
      27App    1.001313    56Ap     1.032049    57Ap     1.065403  
      58Ap     1.075226    59Ap     1.156350    28App    1.175092  
      29App    1.184400    60Ap     1.216079    30App    1.235923  
      61Ap     1.236618    31App    1.316891    62Ap     1.331828  
      63Ap     1.336651    64Ap     1.359614    32App    1.394174  
      65Ap     1.401682    33App    1.408354    66Ap     1.493663  
      67Ap     1.520460    68Ap     1.603910    69Ap     1.687550  
      70Ap     1.991976    34App    2.005865    35App    2.026308  
      71Ap     2.040828    72Ap     2.070165    36App    2.070573  
      73Ap     2.072629    37App    2.078473    74Ap     2.086362  
      75Ap     2.129857    38App    2.148386    76Ap     2.180161  
      77Ap     2.197000    78Ap     2.197322    39App    2.212399  
      40App    2.214272    41App    2.226872    79Ap     2.229156  
      80Ap     2.269888    42App    2.274875    43App    2.300546  
      81Ap     2.328355    82Ap     2.338245    44App    2.367877  
      45App    2.381977    83Ap     2.391021    84Ap     2.396858  
      46App    2.449418    85Ap     2.471495    47App    2.499966  
      48App    2.502714    86Ap     2.506584    87Ap     2.512083  
      49App    2.563830    88Ap     2.597971    89Ap     2.617228  
      90Ap     2.674212    91Ap     2.696954    92Ap     2.787620  
      50App    2.802243    51App    2.810471    93Ap     2.827569  
      94Ap     2.903105    95Ap     3.854077    96Ap     3.921449  
      97Ap     4.997261    98Ap     5.475882    99Ap     5.853341  

    Final Occupation by Irrep:
             Ap   App 
    DOCC [    19,    5 ]
    SOCC [     0,    1 ]

  @DF-UKS Final Energy: -1194.64432637625191

   => Energetics <=

    Nuclear Repulsion Energy =            176.3106122361903658
    One-Electron Energy =               -2010.9465018733203578
    Two-Electron Energy =                 699.2697308257764917
    DFT Exchange-Correlation Energy =     -59.4784475254021743
    Empirical Dispersion Energy =           0.0000000000000000
    VV10 Nonlocal Energy =                  0.2002799605037176
    Total Energy =                      -1194.6443263762521383

  UHF NO Occupations:
  HONO-2 :    4App 1.9993781
  HONO-1 :    5App 1.9984758
  HONO-0 :    6App 1.0000000
  LUNO+0 :    7App 0.0015242
  LUNO+1 :    8App 0.0006219
  LUNO+2 :   20 Ap 0.0001850
  LUNO+3 :   21 Ap 0.0000686


Computation Completed


Properties will be evaluated at   0.000000,   0.000000,   0.000000 [a0]

Properties computed using the SCF density matrix

  Nuclear Dipole Moment: [e a0]
     X:     0.0000      Y:    -0.0000      Z:     0.0000

  Electronic Dipole Moment: [e a0]
     X:     0.3865      Y:     0.2480      Z:     0.0000

  Dipole Moment: [e a0]
     X:     0.3865      Y:     0.2480      Z:     0.0000     Total:     0.4592

  Dipole Moment: [D]
     X:     0.9824      Y:     0.6305      Z:     0.0000     Total:     1.1673


*** tstop() called on c1-9.compute.lan at Wed Feb  3 11:04:02 2021
Module time:
	user time   =     143.20 seconds =       2.39 minutes
	system time =       0.91 seconds =       0.02 minutes
	total time  =        144 seconds =       2.40 minutes
Total time:
	user time   =    6261.23 seconds =     104.35 minutes
	system time =      51.36 seconds =       0.86 minutes
	total time  =       6323 seconds =     105.38 minutes

         ----------------------------------------------------------
                                   FINDIF
                     R. A. King and Jonathon Misiewicz
         ---------------------------------------------------------

  Computing second-derivative from energies using projected, 
  symmetry-adapted, cartesian coordinates.

  13 energies passed in, including the reference geometry.
    Using 3-point formula.
    Energy without displacement: -1194.6443266569
    Check energies below for precision!
    0: -1        :     -1194.6443265362
    0: 1         :     -1194.6443265362
    1: -1        :     -1194.6443265058
    1: 1         :     -1194.6443265046
    2: -1        :     -1194.6443265874
    2: 1         :     -1194.6443265883
    0: 1, 1: 1   :     -1194.6443264440
    0: -1, 1: -1 :     -1194.6443264441
    0: 1, 2: 1   :     -1194.6443263641
    0: -1, 2: -1 :     -1194.6443263674
    1: 1, 2: 1   :     -1194.6443263730
    1: -1, 2: -1 :     -1194.6443263763

-------------------------------------------------------------


  ==> Harmonic Vibrational Analysis <==

  non-mass-weighted Hessian:       Symmetric? True   Hermitian? True   Lin Dep Dim?  6 (0)
  projection of translations (True) and rotations (True) removed 6 degrees of freedom (6)
  total projector:                 Symmetric? True   Hermitian? True   Lin Dep Dim?  6 (6)
  mass-weighted Hessian:           Symmetric? True   Hermitian? True   Lin Dep Dim?  6 (0)
  pre-proj  low-frequency mode:    0.0000i [cm^-1]
  pre-proj  low-frequency mode:    0.0000i [cm^-1]
  pre-proj  low-frequency mode:    0.0000i [cm^-1]
  pre-proj  low-frequency mode:    0.0000i [cm^-1]
  pre-proj  low-frequency mode:    0.0000  [cm^-1]
  pre-proj  low-frequency mode:    0.0000  [cm^-1]
  pre-proj  all modes:['0.0000i' '0.0000i' '0.0000i' '0.0000i' '0.0000' '0.0000' '225.9968'
 '558.3947' '599.1038']
  projected mass-weighted Hessian: Symmetric? True   Hermitian? True   Lin Dep Dim?  6 (6)
  post-proj low-frequency mode:    0.0000i [cm^-1] (TR)
  post-proj low-frequency mode:    0.0000i [cm^-1] (TR)
  post-proj low-frequency mode:    0.0000i [cm^-1] (TR)
  post-proj low-frequency mode:    0.0000  [cm^-1] (TR)
  post-proj low-frequency mode:    0.0000  [cm^-1] (TR)
  post-proj low-frequency mode:    0.0000  [cm^-1] (TR)
  post-proj  all modes:['0.0000i' '0.0000i' '0.0000i' '0.0000' '0.0000' '0.0000' '225.9968'
 '558.3947' '599.1038']

  Vibration                       7                   8                   9           
  Freq [cm^-1]                 225.9968            558.3947            599.1038       
  Irrep                           Ap                  Ap                  Ap          
  Reduced mass [u]             31.9721             31.9721             31.9721        
  Force const [mDyne/A]         0.9621              5.8736              6.7612        
  Turning point v=0 [a0]        0.1291              0.0821              0.0793        
  RMS dev v=0 [a0 u^1/2]        0.5161              0.3283              0.3170        
  Char temp [K]                325.1590            803.4056            861.9770       
  ----------------------------------------------------------------------------------
      1   S               -0.41 -0.27 -0.00    0.55  0.35  0.00   -0.42  0.64  0.00   
      2   S                0.51 -0.34  0.00   -0.04 -0.53 -0.00   -0.00 -0.46  0.00   
      3   S               -0.10  0.61  0.00   -0.51  0.18 -0.00    0.42 -0.19  0.00   

  ==> Thermochemistry Components <==

  Entropy, S
    Electronic S            1.377 [cal/(mol K)]        5.763 [J/(mol K)]       0.00219507 [mEh/K] (multiplicity = 2)
    Translational S        39.594 [cal/(mol K)]      165.660 [J/(mol K)]       0.06309659 [mEh/K] (mol. weight = 95.9162 [u], P = 101325.00 [Pa])
    Rotational S           25.240 [cal/(mol K)]      105.606 [J/(mol K)]       0.04022312 [mEh/K] (symmetry no. = 1)
    Vibrational S           2.889 [cal/(mol K)]       12.087 [J/(mol K)]       0.00460354 [mEh/K]
  Total S                  69.100 [cal/(mol K)]      289.116 [J/(mol K)]       0.11011831 [mEh/K]
  Correction S              0.000 [cal/(mol K)]        0.000 [J/(mol K)]       0.00000000 [mEh/K]

  Constant volume heat capacity, Cv
    Electronic Cv           0.000 [cal/(mol K)]        0.000 [J/(mol K)]       0.00000000 [mEh/K]
    Translational Cv        2.981 [cal/(mol K)]       12.472 [J/(mol K)]       0.00475022 [mEh/K]
    Rotational Cv           2.981 [cal/(mol K)]       12.472 [J/(mol K)]       0.00475022 [mEh/K]
    Vibrational Cv          3.956 [cal/(mol K)]       16.554 [J/(mol K)]       0.00630504 [mEh/K]
  Total Cv                  9.918 [cal/(mol K)]       41.497 [J/(mol K)]       0.01580547 [mEh/K]
  Correction Cv             0.000 [cal/(mol K)]        0.000 [J/(mol K)]       0.00000000 [mEh/K]

  Constant pressure heat capacity, Cp
    Electronic Cp           0.000 [cal/(mol K)]        0.000 [J/(mol K)]       0.00000000 [mEh/K]
    Translational Cp        4.968 [cal/(mol K)]       20.786 [J/(mol K)]       0.00791703 [mEh/K]
    Rotational Cp           2.981 [cal/(mol K)]       12.472 [J/(mol K)]       0.00475022 [mEh/K]
    Vibrational Cp          3.956 [cal/(mol K)]       16.554 [J/(mol K)]       0.00630504 [mEh/K]
  Total Cp                 11.905 [cal/(mol K)]       49.812 [J/(mol K)]       0.01897228 [mEh/K]
  Correction Cp             0.000 [cal/(mol K)]        0.000 [J/(mol K)]       0.00000000 [mEh/K]

  ==> Thermochemistry Energy Analysis <==

  Raw electronic energy, E0
  Total E0, Electronic energy at well bottom at 0 [K]                -1194.64432666 [Eh]

  Zero-point energy, ZPE_vib = Sum_i nu_i / 2
    Electronic ZPE          0.000 [kcal/mol]        0.000 [kJ/mol]       0.00000000 [Eh]
    Translational ZPE       0.000 [kcal/mol]        0.000 [kJ/mol]       0.00000000 [Eh]
    Rotational ZPE          0.000 [kcal/mol]        0.000 [kJ/mol]       0.00000000 [Eh]
    Vibrational ZPE         1.978 [kcal/mol]        8.275 [kJ/mol]       0.00315183 [Eh]         691.748 [cm^-1]
  Correction ZPE            1.978 [kcal/mol]        8.275 [kJ/mol]       0.00315183 [Eh]         691.748 [cm^-1]
  Total ZPE, Electronic energy at 0 [K]                              -1194.64117482 [Eh]

  Thermal Energy, E (includes ZPE)
    Electronic E            0.000 [kcal/mol]        0.000 [kJ/mol]       0.00000000 [Eh]
    Translational E         0.889 [kcal/mol]        3.718 [kJ/mol]       0.00141628 [Eh]
    Rotational E            0.889 [kcal/mol]        3.718 [kJ/mol]       0.00141628 [Eh]
    Vibrational E           2.521 [kcal/mol]       10.549 [kJ/mol]       0.00401775 [Eh]
  Correction E              4.299 [kcal/mol]       17.985 [kJ/mol]       0.00685031 [Eh]
  Total E, Electronic energy at  298.15 [K]                          -1194.63747635 [Eh]

  Enthalpy, H_trans = E_trans + k_B * T
    Electronic H            0.000 [kcal/mol]        0.000 [kJ/mol]       0.00000000 [Eh]
    Translational H         1.481 [kcal/mol]        6.197 [kJ/mol]       0.00236046 [Eh]
    Rotational H            0.889 [kcal/mol]        3.718 [kJ/mol]       0.00141628 [Eh]
    Vibrational H           2.521 [kcal/mol]       10.549 [kJ/mol]       0.00401775 [Eh]
  Correction H              4.891 [kcal/mol]       20.464 [kJ/mol]       0.00779449 [Eh]
  Total H, Enthalpy at  298.15 [K]                                   -1194.63653217 [Eh]

  Gibbs free energy, G = H - T * S
    Electronic G           -0.411 [kcal/mol]       -1.718 [kJ/mol]      -0.00065446 [Eh]
    Translational G       -10.324 [kcal/mol]      -43.194 [kJ/mol]      -0.01645179 [Eh]
    Rotational G           -6.637 [kcal/mol]      -27.768 [kJ/mol]      -0.01057625 [Eh]
    Vibrational G           1.660 [kcal/mol]        6.945 [kJ/mol]       0.00264521 [Eh]
  Correction G            -15.711 [kcal/mol]      -65.735 [kJ/mol]      -0.02503728 [Eh]
  Total G, Free enthalpy at  298.15 [K]                              -1194.66936394 [Eh]

    Psi4 stopped on: Wednesday, 03 February 2021 11:04AM
    Psi4 wall time for execution: 1:45:23.65

*** Psi4 exiting successfully. Buy a developer a beer!
