
    -----------------------------------------------------------------------
          Psi4: An Open-Source Ab Initio Electronic Structure Package
                               Psi4 1.4a2.dev191 

                         Git: Rev {master} 0ab5346 


    R. M. Parrish, L. A. Burns, D. G. A. Smith, A. C. Simmonett,
    A. E. DePrince III, E. G. Hohenstein, U. Bozkaya, A. Yu. Sokolov,
    R. Di Remigio, R. M. Richard, J. F. Gonthier, A. M. James,
    H. R. McAlexander, A. Kumar, M. Saitow, X. Wang, B. P. Pritchard,
    P. Verma, H. F. Schaefer III, K. Patkowski, R. A. King, E. F. Valeev,
    F. A. Evangelista, J. M. Turney, T. D. Crawford, and C. D. Sherrill,
    J. Chem. Theory Comput. 13(7) pp 3185--3197 (2017).
    (doi: 10.1021/acs.jctc.7b00174)


                         Additional Contributions by
    P. Kraus, H. Kruse, M. H. Lechner, M. C. Schieber, R. A. Shaw,
    A. Alenaizan, R. Galvelis, Z. L. Glick, S. Lehtola, and J. P. Misiewicz

    -----------------------------------------------------------------------


    Psi4 started on: Wednesday, 03 February 2021 12:06PM

    Process ID: 1688
    Host:       c2-18.compute.lan
    PSIDATADIR: /apps/gb/PSI4/1.4.0/share/psi4
    Memory:     500.0 MiB
    Threads:    1
    
  ==> Input File <==

--------------------------------------------------------------------------
memory 10 GB

molecule  {
0 3
S
S 1 r1
S 1 r2 2 a1
r1 = 2.0
r2 = 2.1
a1 = 120.0
}

set {
reference uks
basis aug-cc-pvtz
g_convergence gau_verytight
dft_spherical_points 590
dft_radial_points 99
maxiter 500
basis_guess true
}

optimize('wb97x-d')
frequencies('wb97x-d')

--------------------------------------------------------------------------

  Memory set to   9.313 GiB by Python driver.
gradient() will perform analytic gradient computation.

*** tstart() called on c2-18.compute.lan
*** at Wed Feb  3 12:06:23 2021


  //>>>>>>>>>>>>>>>>>>>>>>>>>>>>>>>>>>>//
  //       Guess SCF, 3-21G Basis      //
  //<<<<<<<<<<<<<<<<<<<<<<<<<<<<<<<<<<<//

   => Loading Basis Set <=

    Name: 3-21G
    Role: ORBITAL
    Keyword: BASIS
    atoms 1-3 entry S          line   198 file /apps/gb/PSI4/1.4.0/share/psi4/basis/3-21g.gbs 


         ---------------------------------------------------------
                           SCF Castup computation                     => WB97X-D: Empirical Dispersion <=

    Chai and Head-Gordon Dispersion Correction
    Chai, J.-D.; Head-Gordon, M. (2010), J. Chem. Phys., 132: 6615-6620

        s6 =       1.000000


         ---------------------------------------------------------
                                   SCF
               by Justin Turney, Rob Parrish, Andy Simmonett
                          and Daniel G. A. Smith
                              UKS Reference
                        1 Threads,   9536 MiB Core
         ---------------------------------------------------------

  ==> Geometry <==

    Molecular point group: cs
    Full point group: Cs

    Geometry (in Angstrom), charge = 0, multiplicity = 3:

       Center              X                  Y                   Z               Mass       
    ------------   -----------------  -----------------  -----------------  -----------------
         S            0.606217782649     0.316666666667     0.000000000000    31.972071174400
         S            0.606217782649    -1.683333333333     0.000000000000    31.972071174400
         S           -1.212435565298     1.366666666667     0.000000000000    31.972071174400

  Running in cs symmetry.

  Rotational constants: A =      0.75413  B =      0.08359  C =      0.07525 [cm^-1]
  Rotational constants: A =  22608.14975  B =   2506.04720  C =   2255.97858 [MHz]
  Nuclear repulsion =  170.392939668640480

  Charge       = 0
  Multiplicity = 3
  Electrons    = 48
  Nalpha       = 25
  Nbeta        = 23

  ==> Algorithm <==

  SCF Algorithm Type is DF.
  DIIS enabled.
  MOM disabled.
  Fractional occupation disabled.
  Guess Type is SAD.
  Energy threshold   = 1.00e-08
  Density threshold  = 1.00e-08
  Integral threshold = 0.00e+00

  ==> Primary Basis <==

  Basis Set: 3-21G
    Blend: 3-21G
    Number of shells: 21
    Number of basis function: 39
    Number of Cartesian functions: 39
    Spherical Harmonics?: false
    Max angular momentum: 1

  ==> DFT Potential <==

   => Composite Functional: WB97X-D <= 

    wB97X-D Hyb-GGA Exchange-Correlation Functional

    J.-D. Chai and M. Head-Gordon, Phys. Chem. Chem. Phys. 10, 6615 (2008)

    Deriv               =              1
    GGA                 =           TRUE
    Meta                =          FALSE

    Exchange Hybrid     =           TRUE
    MP2 Hybrid          =          FALSE

   => Exchange-Correlation Functionals <=

    1.0000   wB97D range-separated functional

   => Exact (HF) Exchange <=

    0.7780            HF,LR [omega = 0.2000]
    0.2220               HF 

   => Molecular Quadrature <=

    Radial Scheme          =       TREUTLER
    Pruning Scheme         =           NONE
    Nuclear Scheme         =       TREUTLER

    BS radius alpha        =              1
    Pruning alpha          =              1
    Radial Points          =             99
    Spherical Points       =            590
    Total Points           =         156223
    Total Blocks           =           1217
    Max Points             =            256
    Max Functions          =             36
    Weights Tolerance      =       1.00E-15

   => Loading Basis Set <=

    Name: (3-21G AUX)
    Role: JKFIT
    Keyword: DF_BASIS_SCF
    atoms 1-3 entry S          line   908 file /apps/gb/PSI4/1.4.0/share/psi4/basis/def2-svp-jkfit.gbs 

  ==> Pre-Iterations <==

   -------------------------------------------------------
    Irrep   Nso     Nmo     Nalpha   Nbeta   Ndocc  Nsocc
   -------------------------------------------------------
     A'        30      30       0       0       0       0
     A"         9       9       0       0       0       0
   -------------------------------------------------------
    Total      39      39      25      23      23       2
   -------------------------------------------------------

  ==> Integral Setup <==

  ==> DiskDFJK: Density-Fitted J/K Matrices <==

    J tasked:                  Yes
    K tasked:                  Yes
    wK tasked:                 Yes
    Omega:               2.000E-01
    OpenMP threads:              1
    Integrals threads:           1
    Memory [MiB]:             7024
    Algorithm:                Core
    Integral Cache:           NONE
    Schwarz Cutoff:          1E-12
    Fitting Condition:       1E-10

   => Auxiliary Basis Set <=

  Basis Set: (3-21G AUX)
    Blend: DEF2-SVP-JKFIT
    Number of shells: 114
    Number of basis function: 465
    Number of Cartesian functions: 465
    Spherical Harmonics?: false
    Max angular momentum: 4

  Cached 100.0% of DFT collocation blocks in 0.125 [GiB].

  Minimum eigenvalue in the overlap matrix is 3.0591905050E-02.
  Using Symmetric Orthogonalization.

  SCF Guess: Superposition of Atomic Densities via on-the-fly atomic UHF.

  ==> Iterations <==

                           Total Energy        Delta E     RMS |[F,P]|

   @DF-UKS iter SAD: -1188.23230644723935   -1.18823e+03   0.00000e+00 
   @DF-UKS iter   1: -1188.46579784275582   -2.33491e-01   9.10970e-03 DIIS
   @DF-UKS iter   2: -1188.46254368018117    3.25416e-03   1.00231e-02 DIIS
   @DF-UKS iter   3: -1188.52643617663216   -6.38925e-02   1.51574e-03 DIIS
   @DF-UKS iter   4: -1188.52711209924655   -6.75923e-04   1.33443e-03 DIIS
   @DF-UKS iter   5: -1188.52845741331134   -1.34531e-03   1.79251e-04 DIIS
   @DF-UKS iter   6: -1188.52859357509647   -1.36162e-04   1.00679e-04 DIIS
   @DF-UKS iter   7: -1188.52868051322071   -8.69381e-05   8.74436e-05 DIIS
   @DF-UKS iter   8: -1188.52874814425286   -6.76310e-05   9.26001e-05 DIIS
   @DF-UKS iter   9: -1188.52860002938564    1.48115e-04   7.70372e-05 DIIS
   @DF-UKS iter  10: -1188.52840429114622    1.95738e-04   4.41569e-05 DIIS
   @DF-UKS iter  11: -1188.52838691195757    1.73792e-05   1.30153e-05 DIIS
   @DF-UKS iter  12: -1188.52838645435486    4.57603e-07   6.32111e-06 DIIS
   @DF-UKS iter  13: -1188.52838653560957   -8.12547e-08   1.80171e-06 DIIS
   @DF-UKS iter  14: -1188.52838654336915   -7.75958e-09   4.55444e-07 DIIS
   @DF-UKS iter  15: -1188.52838654394100   -5.71845e-10   2.29540e-07 DIIS
   @DF-UKS iter  16: -1188.52838654396123   -2.02363e-11   9.18642e-08 DIIS
   @DF-UKS iter  17: -1188.52838654399307   -3.18323e-11   3.15552e-08 DIIS
   @DF-UKS iter  18: -1188.52838654399920   -6.13909e-12   1.77405e-08 DIIS
   @DF-UKS iter  19: -1188.52838654399920    0.00000e+00   6.74351e-09 DIIS
  Energy and wave function converged.


  ==> Post-Iterations <==

   @Spin Contamination Metric:   2.489692368E-02
   @S^2 Expected:                2.000000000E+00
   @S^2 Observed:                2.024896924E+00
   @S   Expected:                1.000000000E+00
   @S   Observed:                1.000000000E+00

    Orbital Energies [Eh]
    ---------------------

    Alpha Occupied:                                                       

       1Ap   -88.522766     2Ap   -88.465938     3Ap   -88.455380  
       4Ap    -8.126133     5Ap    -8.068129     6Ap    -8.054112  
       7Ap    -6.080215     8Ap    -6.076367     1App   -6.074082  
       9Ap    -6.026634    10Ap    -6.017942     2App   -6.014642  
      11Ap    -6.014345     3App   -6.002553    12Ap    -6.001033  
      13Ap    -1.003077    14Ap    -0.867146    15Ap    -0.729211  
      16Ap    -0.531820     4App   -0.503855    17Ap    -0.503272  
       5App   -0.395236    18Ap    -0.388348    19Ap    -0.376686  
       6App   -0.333183  

    Alpha Virtual:                                                        

      20Ap    -0.040416    21Ap     0.033651    22Ap     0.432099  
      23Ap     0.507188    24Ap     0.513129     7App    0.518587  
      25Ap     0.534757    26Ap     0.560196     8App    0.575633  
       9App    0.604820    27Ap     0.605958    28Ap     0.628598  
      29Ap     0.656760    30Ap     0.689085  

    Beta Occupied:                                                        

       1Ap   -88.519175     2Ap   -88.461193     3Ap   -88.451185  
       4Ap    -8.122163     5Ap    -8.062986     6Ap    -8.049597  
       7Ap    -6.078531     8Ap    -6.071363     1App   -6.063556  
       9Ap    -6.020924    10Ap    -6.008685    11Ap    -6.008475  
       2App   -6.006058    12Ap    -5.994750     3App   -5.993615  
      13Ap    -0.979856    14Ap    -0.836679    15Ap    -0.683222  
      16Ap    -0.502771    17Ap    -0.481724     4App   -0.463251  
       5App   -0.337706    18Ap    -0.336465  

    Beta Virtual:                                                         

      19Ap    -0.158607     6App   -0.111928    20Ap    -0.024832  
      21Ap     0.061354    22Ap     0.442331    23Ap     0.516678  
      24Ap     0.526552     7App    0.536941    25Ap     0.542234  
      26Ap     0.574157     8App    0.592191    27Ap     0.621454  
       9App    0.621678    28Ap     0.639802    29Ap     0.667258  
      30Ap     0.694381  

    Final Occupation by Irrep:
             Ap   App 
    DOCC [    18,    5 ]
    SOCC [     1,    1 ]

  @DF-UKS Final Energy: -1188.52838654399920

   => Energetics <=

    Nuclear Repulsion Energy =            170.3929396686404800
    One-Electron Energy =               -1981.0384629105933527
    Two-Electron Energy =                 678.2493894479206347
    DFT Exchange-Correlation Energy =     -56.1319731900945911
    Empirical Dispersion Energy =          -0.0002795598724586
    VV10 Nonlocal Energy =                  0.0000000000000000
    Total Energy =                      -1188.5283865439994315

  UHF NO Occupations:
  HONO-2 :   18 Ap 1.9888164
  HONO-1 :    6App 1.0000000
  HONO-0 :   19 Ap 1.0000000
  LUNO+0 :   20 Ap 0.0111836
  LUNO+1 :    7App 0.0004200
  LUNO+2 :   21 Ap 0.0003843
  LUNO+3 :    8App 0.0003453


Computation Completed

  //>>>>>>>>>>>>>>>>>>>>>>>>>>>>>>>>>>>//
  //              WB97X-D              //
  //<<<<<<<<<<<<<<<<<<<<<<<<<<<<<<<<<<<//

   => Loading Basis Set <=

    Name: AUG-CC-PVTZ
    Role: ORBITAL
    Keyword: BASIS
    atoms 1-3 entry S          line   906 file /apps/gb/PSI4/1.4.0/share/psi4/basis/aug-cc-pvtz.gbs 

   => WB97X-D: Empirical Dispersion <=

    Chai and Head-Gordon Dispersion Correction
    Chai, J.-D.; Head-Gordon, M. (2010), J. Chem. Phys., 132: 6615-6620

        s6 =       1.000000


         ---------------------------------------------------------
                                   SCF
               by Justin Turney, Rob Parrish, Andy Simmonett
                          and Daniel G. A. Smith
                              UKS Reference
                        1 Threads,   9536 MiB Core
         ---------------------------------------------------------

  ==> Geometry <==

    Molecular point group: cs
    Full point group: Cs

    Geometry (in Angstrom), charge = 0, multiplicity = 3:

       Center              X                  Y                   Z               Mass       
    ------------   -----------------  -----------------  -----------------  -----------------
         S            0.606217782649     0.316666666667     0.000000000000    31.972071174400
         S            0.606217782649    -1.683333333333     0.000000000000    31.972071174400
         S           -1.212435565298     1.366666666667     0.000000000000    31.972071174400

  Running in cs symmetry.

  Rotational constants: A =      0.75413  B =      0.08359  C =      0.07525 [cm^-1]
  Rotational constants: A =  22608.14975  B =   2506.04720  C =   2255.97858 [MHz]
  Nuclear repulsion =  170.392939668640480

  Charge       = 0
  Multiplicity = 3
  Electrons    = 48
  Nalpha       = 25
  Nbeta        = 23

  ==> Algorithm <==

  SCF Algorithm Type is DF.
  DIIS enabled.
  MOM disabled.
  Fractional occupation disabled.
  Guess Type is SAD.
  Energy threshold   = 1.00e-08
  Density threshold  = 1.00e-08
  Integral threshold = 0.00e+00

  ==> Primary Basis <==

  Basis Set: AUG-CC-PVTZ
    Blend: AUG-CC-PVTZ
    Number of shells: 48
    Number of basis function: 150
    Number of Cartesian functions: 177
    Spherical Harmonics?: true
    Max angular momentum: 3

  ==> DFT Potential <==

   => Composite Functional: WB97X-D <= 

    wB97X-D Hyb-GGA Exchange-Correlation Functional

    J.-D. Chai and M. Head-Gordon, Phys. Chem. Chem. Phys. 10, 6615 (2008)

    Deriv               =              1
    GGA                 =           TRUE
    Meta                =          FALSE

    Exchange Hybrid     =           TRUE
    MP2 Hybrid          =          FALSE

   => Exchange-Correlation Functionals <=

    1.0000   wB97D range-separated functional

   => Exact (HF) Exchange <=

    0.7780            HF,LR [omega = 0.2000]
    0.2220               HF 

   => Molecular Quadrature <=

    Radial Scheme          =       TREUTLER
    Pruning Scheme         =           NONE
    Nuclear Scheme         =       TREUTLER

    BS radius alpha        =              1
    Pruning alpha          =              1
    Radial Points          =             99
    Spherical Points       =            590
    Total Points           =         169927
    Total Blocks           =           1392
    Max Points             =            256
    Max Functions          =            150
    Weights Tolerance      =       1.00E-15

   => Loading Basis Set <=

    Name: (AUG-CC-PVTZ AUX)
    Role: JKFIT
    Keyword: DF_BASIS_SCF
    atoms 1-3 entry S          line   730 file /apps/gb/PSI4/1.4.0/share/psi4/basis/aug-cc-pvtz-jkfit.gbs 


  Computing basis projection from 3-21G to AUG-CC-PVTZ

  ==> Pre-Iterations <==

   -------------------------------------------------------
    Irrep   Nso     Nmo     Nalpha   Nbeta   Ndocc  Nsocc
   -------------------------------------------------------
     A'        99      99       0       0       0       0
     A"        51      51       0       0       0       0
   -------------------------------------------------------
    Total     150     150      25      23      23       2
   -------------------------------------------------------

  ==> Integral Setup <==

  ==> DiskDFJK: Density-Fitted J/K Matrices <==

    J tasked:                  Yes
    K tasked:                  Yes
    wK tasked:                 Yes
    Omega:               2.000E-01
    OpenMP threads:              1
    Integrals threads:           1
    Memory [MiB]:             6486
    Algorithm:                Core
    Integral Cache:           NONE
    Schwarz Cutoff:          1E-12
    Fitting Condition:       1E-10

   => Auxiliary Basis Set <=

  Basis Set: (AUG-CC-PVTZ AUX)
    Blend: AUG-CC-PVTZ-JKFIT
    Number of shells: 126
    Number of basis function: 438
    Number of Cartesian functions: 540
    Spherical Harmonics?: true
    Max angular momentum: 4

  Cached 100.0% of DFT collocation blocks in 0.650 [GiB].

  Minimum eigenvalue in the overlap matrix is 2.2915518432E-04.
  Using Symmetric Orthogonalization.

  SCF Guess: Orbitals guess was supplied from a previous computation.

  ==> Iterations <==

                           Total Energy        Delta E     RMS |[F,P]|

   @DF-UKS iter   0: -1194.06131951491989   -1.19406e+03   4.07368e-02 
   @DF-UKS iter   1: -1194.52344326162802   -4.62124e-01   2.03258e-03 DIIS
   @DF-UKS iter   2: -1194.53239585983920   -8.95260e-03   1.28065e-03 DIIS
   @DF-UKS iter   3: -1194.54236586126513   -9.97000e-03   4.89096e-04 DIIS
   @DF-UKS iter   4: -1194.54401857011703   -1.65271e-03   1.09048e-04 DIIS
   @DF-UKS iter   5: -1194.54410950355032   -9.09334e-05   3.90153e-05 DIIS
   @DF-UKS iter   6: -1194.54412216269293   -1.26591e-05   2.83098e-05 DIIS
   @DF-UKS iter   7: -1194.54412990186552   -7.73917e-06   5.66953e-06 DIIS
   @DF-UKS iter   8: -1194.54413124428220   -1.34242e-06   3.05967e-06 DIIS
   @DF-UKS iter   9: -1194.54413197268013   -7.28398e-07   2.08741e-06 DIIS
   @DF-UKS iter  10: -1194.54413254513702   -5.72457e-07   2.01433e-06 DIIS
   @DF-UKS iter  11: -1194.54413273327145   -1.88134e-07   2.08856e-06 DIIS
   @DF-UKS iter  12: -1194.54413192897437    8.04297e-07   1.67082e-06 DIIS
   @DF-UKS iter  13: -1194.54413097971974    9.49255e-07   9.38494e-07 DIIS
   @DF-UKS iter  14: -1194.54413087150533    1.08214e-07   5.58737e-07 DIIS
   @DF-UKS iter  15: -1194.54413087961302   -8.10769e-09   2.93240e-07 DIIS
   @DF-UKS iter  16: -1194.54413088225465   -2.64163e-09   1.56221e-07 DIIS
   @DF-UKS iter  17: -1194.54413088300862   -7.53971e-10   6.41003e-08 DIIS
   @DF-UKS iter  18: -1194.54413088316414   -1.55524e-10   4.24654e-08 DIIS
   @DF-UKS iter  19: -1194.54413088314573    1.84173e-11   1.25244e-08 DIIS
   @DF-UKS iter  20: -1194.54413088315050   -4.77485e-12   4.37071e-09 DIIS
  Energy and wave function converged.


  ==> Post-Iterations <==

   @Spin Contamination Metric:   3.406293149E-02
   @S^2 Expected:                2.000000000E+00
   @S^2 Observed:                2.034062931E+00
   @S   Expected:                1.000000000E+00
   @S   Observed:                1.000000000E+00

    Orbital Energies [Eh]
    ---------------------

    Alpha Occupied:                                                       

       1Ap   -89.175012     2Ap   -89.115184     3Ap   -89.099858  
       4Ap    -8.175342     5Ap    -8.120993     6Ap    -8.104506  
       7Ap    -6.122625     8Ap    -6.122135     1App   -6.121893  
       9Ap    -6.072837    10Ap    -6.066348     2App   -6.064215  
      11Ap    -6.057707     3App   -6.048780    12Ap    -6.047201  
      13Ap    -0.960831    14Ap    -0.840705    15Ap    -0.722920  
      16Ap    -0.522411    17Ap    -0.490096     4App   -0.485889  
       5App   -0.386212    18Ap    -0.384261    19Ap    -0.367806  
       6App   -0.320239  

    Alpha Virtual:                                                        

      20Ap    -0.023071    21Ap     0.029478    22Ap     0.068594  
      23Ap     0.074754    24Ap     0.076158     7App    0.090950  
      25Ap     0.106042    26Ap     0.108183     8App    0.114646  
      27Ap     0.115726     9App    0.119806    28Ap     0.133680  
      29Ap     0.183161    10App    0.186736    11App    0.201194  
      30Ap     0.205088    31Ap     0.208246    32Ap     0.246666  
      33Ap     0.270903    34Ap     0.279115    12App    0.282698  
      13App    0.285852    35Ap     0.302043    14App    0.347912  
      36Ap     0.353112    37Ap     0.355859    38Ap     0.377514  
      15App    0.396008    39Ap     0.414596    16App    0.449368  
      40Ap     0.471122    17App    0.520902    41Ap     0.538388  
      42Ap     0.548555    43Ap     0.553509    18App    0.555642  
      44Ap     0.563180    19App    0.565624    45Ap     0.569829  
      20App    0.583276    46Ap     0.585384    21App    0.613071  
      47Ap     0.619794    48Ap     0.622558    49Ap     0.628043  
      22App    0.637136    50Ap     0.644127    51Ap     0.657241  
      23App    0.675470    52Ap     0.678968    53Ap     0.718999  
      24App    0.728802    25App    0.733354    54Ap     0.784801  
      26App    0.791023    55Ap     0.792012    27App    0.805598  
      56Ap     0.818830    57Ap     0.838755    58Ap     0.854813  
      59Ap     0.928881    28App    0.943734    29App    0.981587  
      60Ap     1.012913    30App    1.043300    61Ap     1.052818  
      31App    1.123003    62Ap     1.123194    63Ap     1.133130  
      64Ap     1.163817    65Ap     1.183274    32App    1.209802  
      33App    1.218884    66Ap     1.309653    67Ap     1.323405  
      68Ap     1.390425    69Ap     1.496493    70Ap     1.769613  
      34App    1.785325    35App    1.802525    71Ap     1.815521  
      72Ap     1.845147    36App    1.850802    37App    1.857200  
      73Ap     1.864160    74Ap     1.892588    38App    1.933274  
      75Ap     1.942281    76Ap     1.963228    77Ap     1.980079  
      39App    1.992397    78Ap     1.995262    40App    2.001143  
      41App    2.020723    79Ap     2.023132    42App    2.043912  
      80Ap     2.052029    43App    2.067339    81Ap     2.100725  
      82Ap     2.116949    44App    2.136839    83Ap     2.143428  
      45App    2.154939    84Ap     2.159404    46App    2.231195  
      85Ap     2.238576    47App    2.242692    86Ap     2.252490  
      87Ap     2.266841    48App    2.277336    49App    2.322187  
      88Ap     2.359218    89Ap     2.373304    90Ap     2.432546  
      91Ap     2.443382    92Ap     2.472690    50App    2.519310  
      93Ap     2.522507    51App    2.583633    94Ap     2.686951  
      95Ap     3.571073    96Ap     3.674676    97Ap     4.728677  
      98Ap     5.140132    99Ap     5.606382  

    Beta Occupied:                                                        

       1Ap   -89.171363     2Ap   -89.110588     3Ap   -89.095885  
       4Ap    -8.171606     5Ap    -8.116323     6Ap    -8.100480  
       7Ap    -6.121060     8Ap    -6.117613     1App   -6.111464  
       9Ap    -6.066545    10Ap    -6.058539     2App   -6.056232  
      11Ap    -6.051808    12Ap    -6.041913     3App   -6.040766  
      13Ap    -0.937922    14Ap    -0.809602    15Ap    -0.675071  
      16Ap    -0.493907    17Ap    -0.469012     4App   -0.445487  
       5App   -0.334472    18Ap    -0.327298  

    Beta Virtual:                                                         

      19Ap    -0.151390     6App   -0.095611    20Ap    -0.008567  
      21Ap     0.045065    22Ap     0.069819    23Ap     0.081472  
      24Ap     0.082506     7App    0.093938    25Ap     0.110511  
      26Ap     0.111741     8App    0.117067    27Ap     0.119848  
       9App    0.124923    28Ap     0.137631    29Ap     0.186081  
      10App    0.193236    30Ap     0.205865    31Ap     0.213038  
      11App    0.213133    32Ap     0.253726    33Ap     0.282043  
      34Ap     0.283905    12App    0.292399    13App    0.296980  
      35Ap     0.309719    14App    0.353811    36Ap     0.356135  
      37Ap     0.362122    38Ap     0.378830    15App    0.399623  
      39Ap     0.420688    16App    0.456865    40Ap     0.476811  
      17App    0.526247    41Ap     0.543105    42Ap     0.556247  
      43Ap     0.561094    18App    0.567484    44Ap     0.569981  
      45Ap     0.574795    19App    0.575603    20App    0.588419  
      46Ap     0.593206    47Ap     0.625499    21App    0.634812  
      48Ap     0.637753    49Ap     0.643141    22App    0.651616  
      50Ap     0.658004    51Ap     0.670858    23App    0.687098  
      52Ap     0.688920    53Ap     0.731889    24App    0.738939  
      25App    0.751608    54Ap     0.790305    26App    0.795329  
      55Ap     0.797870    27App    0.812478    56Ap     0.832621  
      57Ap     0.850050    58Ap     0.859543    59Ap     0.933700  
      28App    0.947367    29App    0.988019    60Ap     1.017351  
      30App    1.048460    61Ap     1.056971    62Ap     1.126794  
      31App    1.128117    63Ap     1.138058    64Ap     1.170544  
      65Ap     1.192159    32App    1.218071    33App    1.227472  
      66Ap     1.320920    67Ap     1.330730    68Ap     1.403013  
      69Ap     1.511931    70Ap     1.787563    34App    1.801624  
      35App    1.822743    71Ap     1.833156    36App    1.860990  
      72Ap     1.862603    73Ap     1.874916    37App    1.876699  
      74Ap     1.903097    38App    1.951624    75Ap     1.951835  
      76Ap     1.976004    77Ap     1.993943    78Ap     2.008970  
      39App    2.009874    40App    2.018731    79Ap     2.034566  
      41App    2.036364    42App    2.063706    80Ap     2.065727  
      43App    2.090299    81Ap     2.117168    82Ap     2.139859  
      44App    2.164640    83Ap     2.167991    45App    2.179819  
      84Ap     2.184261    46App    2.247767    85Ap     2.258834  
      47App    2.261735    86Ap     2.268740    87Ap     2.285027  
      48App    2.296685    49App    2.341868    88Ap     2.376406  
      89Ap     2.387006    90Ap     2.444330    91Ap     2.455386  
      92Ap     2.486931    93Ap     2.534020    50App    2.536858  
      51App    2.601029    94Ap     2.700419    95Ap     3.579758  
      96Ap     3.681963    97Ap     4.741200    98Ap     5.150901  
      99Ap     5.615739  

    Final Occupation by Irrep:
             Ap   App 
    DOCC [    18,    5 ]
    SOCC [     1,    1 ]

  @DF-UKS Final Energy: -1194.54413088315050

   => Energetics <=

    Nuclear Repulsion Energy =            170.3929396686404800
    One-Electron Energy =               -1988.2744697198741051
    Two-Electron Energy =                 679.5313358829608887
    DFT Exchange-Correlation Energy =     -56.1936571550054822
    Empirical Dispersion Energy =          -0.0002795598724586
    VV10 Nonlocal Energy =                  0.0000000000000000
    Total Energy =                      -1194.5441308831505012

  UHF NO Occupations:
  HONO-2 :   18 Ap 1.9875176
  HONO-1 :    6App 1.0000000
  HONO-0 :   19 Ap 1.0000000
  LUNO+0 :   20 Ap 0.0124824
  LUNO+1 :    7App 0.0017966
  LUNO+2 :    8App 0.0010634
  LUNO+3 :   21 Ap 0.0007675


Computation Completed


Properties will be evaluated at   0.000000,   0.000000,   0.000000 [a0]

Properties computed using the SCF density matrix

  Nuclear Dipole Moment: [e a0]
     X:     0.0000      Y:    -0.0000      Z:     0.0000

  Electronic Dipole Moment: [e a0]
     X:     0.1734      Y:    -0.1807      Z:     0.0000

  Dipole Moment: [e a0]
     X:     0.1734      Y:    -0.1807      Z:     0.0000     Total:     0.2504

  Dipole Moment: [D]
     X:     0.4408      Y:    -0.4592      Z:     0.0000     Total:     0.6365


*** tstop() called on c2-18.compute.lan at Wed Feb  3 12:08:43 2021
Module time:
	user time   =     138.26 seconds =       2.30 minutes
	system time =       1.60 seconds =       0.03 minutes
	total time  =        140 seconds =       2.33 minutes
Total time:
	user time   =     138.26 seconds =       2.30 minutes
	system time =       1.60 seconds =       0.03 minutes
	total time  =        140 seconds =       2.33 minutes

*** tstart() called on c2-18.compute.lan
*** at Wed Feb  3 12:08:43 2021


         ------------------------------------------------------------
                                   SCF GRAD                          
                          Rob Parrish, Justin Turney,                
                       Andy Simmonett, and Alex Sokolov              
         ------------------------------------------------------------

  ==> Geometry <==

    Molecular point group: cs
    Full point group: Cs

    Geometry (in Angstrom), charge = 0, multiplicity = 3:

       Center              X                  Y                   Z               Mass       
    ------------   -----------------  -----------------  -----------------  -----------------
         S            0.606217782649     0.316666666667     0.000000000000    31.972071174400
         S            0.606217782649    -1.683333333333     0.000000000000    31.972071174400
         S           -1.212435565298     1.366666666667     0.000000000000    31.972071174400

  Nuclear repulsion =  170.392939668640480

  ==> Basis Set <==

  Basis Set: AUG-CC-PVTZ
    Blend: AUG-CC-PVTZ
    Number of shells: 48
    Number of basis function: 150
    Number of Cartesian functions: 177
    Spherical Harmonics?: true
    Max angular momentum: 3

  ==> DFJKGrad: Density-Fitted SCF Gradients <==

    Gradient:                    1
    J tasked:                  Yes
    K tasked:                  Yes
    wK tasked:                 Yes
    Omega:               2.000E-01
    OpenMP threads:              1
    Integrals threads:           1
    Memory [MiB]:             7152
    Schwarz Cutoff:          0E+00
    Fitting Condition:       1E-10

   => Auxiliary Basis Set <=

  Basis Set: (AUG-CC-PVTZ AUX)
    Blend: AUG-CC-PVTZ-JKFIT
    Number of shells: 126
    Number of basis function: 438
    Number of Cartesian functions: 540
    Spherical Harmonics?: true
    Max angular momentum: 4

  ==> DFT Potential <==

   => Composite Functional: WB97X-D <= 

    wB97X-D Hyb-GGA Exchange-Correlation Functional

    J.-D. Chai and M. Head-Gordon, Phys. Chem. Chem. Phys. 10, 6615 (2008)

    Deriv               =              1
    GGA                 =           TRUE
    Meta                =          FALSE

    Exchange Hybrid     =           TRUE
    MP2 Hybrid          =          FALSE

   => Exchange-Correlation Functionals <=

    1.0000   wB97D range-separated functional

   => Exact (HF) Exchange <=

    0.7780            HF,LR [omega = 0.2000]
    0.2220               HF 

   => Molecular Quadrature <=

    Radial Scheme          =       TREUTLER
    Pruning Scheme         =           NONE
    Nuclear Scheme         =       TREUTLER

    BS radius alpha        =              1
    Pruning alpha          =              1
    Radial Points          =             99
    Spherical Points       =            590
    Total Points           =         169927
    Total Blocks           =           1392
    Max Points             =            256
    Max Functions          =            150
    Weights Tolerance      =       1.00E-15


  -Total Gradient:
     Atom            X                  Y                   Z
    ------   -----------------  -----------------  -----------------
       1        0.040620035092     0.002575051062     0.000000000000
       2       -0.002842299956    -0.021236252947     0.000000000000
       3       -0.037765710222     0.018670354529     0.000000000000


*** tstop() called on c2-18.compute.lan at Wed Feb  3 12:09:02 2021
Module time:
	user time   =      18.52 seconds =       0.31 minutes
	system time =       0.08 seconds =       0.00 minutes
	total time  =         19 seconds =       0.32 minutes
Total time:
	user time   =     156.78 seconds =       2.61 minutes
	system time =       1.69 seconds =       0.03 minutes
	total time  =        159 seconds =       2.65 minutes

			-----------------------------------------
			 OPTKING 2.0: for geometry optimizations 
			  - R.A. King,  Bethel University        
			-----------------------------------------

	Internal coordinates to be generated automatically.
	Detected frag 1 with atoms:  1 2 3
	---Fragment 1 Bond Connectivity---
	 1 : 2 3
	 2 : 1
	 3 : 1

	---Fragment 1 Geometry and Gradient---
	 S           1.1455855816        0.5984132731        0.0000000000
	 S           1.1455855816       -3.1810389779        0.0000000000
	 S          -2.2911711632        2.5826257048        0.0000000000
	             0.0406200351        0.0025750511        0.0000000000
	            -0.0028423000       -0.0212362529        0.0000000000
	            -0.0377657102        0.0186703545        0.0000000000

	Previous optimization step data not found.  Starting new optimization.

	---Fragment 1 Intrafragment Coordinates---
	 - Coordinate -           - BOHR/RAD -       - ANG/DEG -
	 R(1,2)           =         3.779452	       2.000000
	 R(1,3)           =         3.968425	       2.100000
	 B(2,1,3)         =         2.094395	     120.000000

	Current energy   :     -1194.5441308832

	Generating empirical Hessian (Schlegel '84) for each fragment.
	Taking RFO optimization step.
	Going to follow RFO solution 1.
	Using RFO vector 1.
	Norm of target step-size    0.17678
	Projected energy change by RFO approximation:         0.0043344510

	Back-transformation to cartesian coordinates...
	Successfully converged to displaced geometry.

	--- Internal Coordinate Step in ANG or DEG, aJ/ANG or AJ/DEG ---
	 ---------------------------------------------------------------------------
	   Coordinate                Previous        Force       Change         New 
	   ----------                --------       ------       ------       ------
	    1 R(1,2)          =      2.000000    -0.174996    -0.031716     1.968284
	    2 R(1,3)          =      2.100000    -0.346371    -0.085198     2.014802
	    3 B(2,1,3)        =    120.000000     0.000820     2.387718   122.387718
	 ---------------------------------------------------------------------------
	Successfully symmetrized geometry.

  ==> Convergence Check <==

  Measures of convergence in internal coordinates in au.
  Criteria marked as inactive (o), active & met (*), and active & unmet ( ).
  --------------------------------------------------------------------------------------------- ~
   Step     Total Energy     Delta E     MAX Force     RMS Force      MAX Disp      RMS Disp    ~
  --------------------------------------------------------------------------------------------- ~
    Convergence Criteria             o    2.00e-06 *    1.00e-06 *    6.00e-06 *    4.00e-06 *  ~
  --------------------------------------------------------------------------------------------- ~
      1   -1194.54413088   -1.19e+03 o    4.20e-02      2.79e-02      1.61e-01      1.02e-01    ~
  ---------------------------------------------------------------------------------------------

	Writing optimization data to binary file.
	Structure for next step:
	Cartesian Geometry (in Angstrom)
	    S     0.5593086644   0.3108605804   0.0000000000
	    S     0.6099948249  -1.6567702990   0.0000000000
	    S    -1.1693034893   1.3459097186   0.0000000000
			--------------------------
			 OPTKING Finished Execution 
			--------------------------

    Structure for next step:
    Molecular point group: cs
    Full point group: Cs

    Geometry (in Angstrom), charge = 0, multiplicity = 3:

    S       
    S             1          r1
    S             1          r2      2          a1

    a1        =  122.3877181941
    r1        =    1.9682836165
    r2        =    2.0148019079

gradient() will perform analytic gradient computation.

*** tstart() called on c2-18.compute.lan
*** at Wed Feb  3 12:09:02 2021


  //>>>>>>>>>>>>>>>>>>>>>>>>>>>>>>>>>>>//
  //       Guess SCF, 3-21G Basis      //
  //<<<<<<<<<<<<<<<<<<<<<<<<<<<<<<<<<<<//

   => Loading Basis Set <=

    Name: 3-21G
    Role: ORBITAL
    Keyword: BASIS
    atoms 1-3 entry S          line   198 file /apps/gb/PSI4/1.4.0/share/psi4/basis/3-21g.gbs 


         ---------------------------------------------------------
                           SCF Castup computation                     => WB97X-D: Empirical Dispersion <=

    Chai and Head-Gordon Dispersion Correction
    Chai, J.-D.; Head-Gordon, M. (2010), J. Chem. Phys., 132: 6615-6620

        s6 =       1.000000


         ---------------------------------------------------------
                                   SCF
               by Justin Turney, Rob Parrish, Andy Simmonett
                          and Daniel G. A. Smith
                              UKS Reference
                        1 Threads,   9536 MiB Core
         ---------------------------------------------------------

  ==> Geometry <==

    Molecular point group: cs
    Full point group: Cs

    Geometry (in Angstrom), charge = 0, multiplicity = 3:

       Center              X                  Y                   Z               Mass       
    ------------   -----------------  -----------------  -----------------  -----------------
         S            0.567128297894     0.296354482772     0.000000000000    31.972071174400
         S            0.567128297894    -1.671929133776     0.000000000000    31.972071174400
         S           -1.134256595789     1.375574651004     0.000000000000    31.972071174400

  Running in cs symmetry.

  Rotational constants: A =      0.85920  B =      0.08656  C =      0.07863 [cm^-1]
  Rotational constants: A =  25758.03102  B =   2594.90193  C =   2357.41271 [MHz]
  Nuclear repulsion =  174.876631839710853

  Charge       = 0
  Multiplicity = 3
  Electrons    = 48
  Nalpha       = 25
  Nbeta        = 23

  ==> Algorithm <==

  SCF Algorithm Type is DF.
  DIIS enabled.
  MOM disabled.
  Fractional occupation disabled.
  Guess Type is READ.
  Energy threshold   = 1.00e-08
  Density threshold  = 1.00e-08
  Integral threshold = 0.00e+00

  ==> Primary Basis <==

  Basis Set: 3-21G
    Blend: 3-21G
    Number of shells: 21
    Number of basis function: 39
    Number of Cartesian functions: 39
    Spherical Harmonics?: false
    Max angular momentum: 1

  ==> DFT Potential <==

   => Composite Functional: WB97X-D <= 

    wB97X-D Hyb-GGA Exchange-Correlation Functional

    J.-D. Chai and M. Head-Gordon, Phys. Chem. Chem. Phys. 10, 6615 (2008)

    Deriv               =              1
    GGA                 =           TRUE
    Meta                =          FALSE

    Exchange Hybrid     =           TRUE
    MP2 Hybrid          =          FALSE

   => Exchange-Correlation Functionals <=

    1.0000   wB97D range-separated functional

   => Exact (HF) Exchange <=

    0.7780            HF,LR [omega = 0.2000]
    0.2220               HF 

   => Molecular Quadrature <=

    Radial Scheme          =       TREUTLER
    Pruning Scheme         =           NONE
    Nuclear Scheme         =       TREUTLER

    BS radius alpha        =              1
    Pruning alpha          =              1
    Radial Points          =             99
    Spherical Points       =            590
    Total Points           =         156139
    Total Blocks           =           1230
    Max Points             =            256
    Max Functions          =             36
    Weights Tolerance      =       1.00E-15

   => Loading Basis Set <=

    Name: (3-21G AUX)
    Role: JKFIT
    Keyword: DF_BASIS_SCF
    atoms 1-3 entry S          line   908 file /apps/gb/PSI4/1.4.0/share/psi4/basis/def2-svp-jkfit.gbs 

  ==> Pre-Iterations <==

   -------------------------------------------------------
    Irrep   Nso     Nmo     Nalpha   Nbeta   Ndocc  Nsocc
   -------------------------------------------------------
     A'        30      30       0       0       0       0
     A"         9       9       0       0       0       0
   -------------------------------------------------------
    Total      39      39      25      23      23       2
   -------------------------------------------------------

  ==> Integral Setup <==

  ==> DiskDFJK: Density-Fitted J/K Matrices <==

    J tasked:                  Yes
    K tasked:                  Yes
    wK tasked:                 Yes
    Omega:               2.000E-01
    OpenMP threads:              1
    Integrals threads:           1
    Memory [MiB]:             7024
    Algorithm:                Core
    Integral Cache:           NONE
    Schwarz Cutoff:          1E-12
    Fitting Condition:       1E-10

   => Auxiliary Basis Set <=

  Basis Set: (3-21G AUX)
    Blend: DEF2-SVP-JKFIT
    Number of shells: 114
    Number of basis function: 465
    Number of Cartesian functions: 465
    Spherical Harmonics?: false
    Max angular momentum: 4

  Cached 100.0% of DFT collocation blocks in 0.125 [GiB].

  Minimum eigenvalue in the overlap matrix is 2.8158371315E-02.
  Using Symmetric Orthogonalization.


Warning! Guess was READ without Ca set, switching to CORE!
           This option should have been configured at the driver level.

  SCF Guess: Core (One-Electron) Hamiltonian.

  ==> Iterations <==

                           Total Energy        Delta E     RMS |[F,P]|

    Occupation by irrep:
             Ap   App 
    DOCC [    18,    5 ]
    SOCC [     2,    0 ]

   @DF-UKS iter   1: -1178.23704591996056   -1.17824e+03   1.04694e-01 DIIS
    Occupation by irrep:
             Ap   App 
    DOCC [    18,    5 ]
    SOCC [     1,    1 ]

   @DF-UKS iter   2: -1179.10208454240183   -8.65039e-01   8.33785e-02 DIIS
   @DF-UKS iter   3: -1185.34973913858289   -6.24765e+00   5.22907e-02 DIIS
   @DF-UKS iter   4: -1187.22351605546055   -1.87378e+00   3.63508e-02 DIIS
   @DF-UKS iter   5: -1188.25715864737367   -1.03364e+00   1.84390e-02 DIIS
   @DF-UKS iter   6: -1188.51260679309826   -2.55448e-01   2.60443e-03 DIIS
   @DF-UKS iter   7: -1188.51933521981550   -6.72843e-03   8.49765e-04 DIIS
   @DF-UKS iter   8: -1188.52047408654789   -1.13887e-03   6.10191e-04 DIIS
   @DF-UKS iter   9: -1188.52120332984487   -7.29243e-04   2.07813e-04 DIIS
   @DF-UKS iter  10: -1188.52140825823062   -2.04928e-04   9.57200e-05 DIIS
   @DF-UKS iter  11: -1188.52149816154406   -8.99033e-05   9.74081e-05 DIIS
   @DF-UKS iter  12: -1188.52166627659017   -1.68115e-04   8.62091e-05 DIIS
   @DF-UKS iter  13: -1188.52197022990867   -3.03953e-04   7.18640e-05 DIIS
   @DF-UKS iter  14: -1188.52215289253036   -1.82663e-04   2.67868e-05 DIIS
   @DF-UKS iter  15: -1188.52214831363312    4.57890e-06   5.34544e-05 DIIS
   @DF-UKS iter  16: -1188.52216324294841   -1.49293e-05   2.10259e-05 DIIS
   @DF-UKS iter  17: -1188.52216458550538   -1.34256e-06   7.62660e-06 DIIS
   @DF-UKS iter  18: -1188.52216478185915   -1.96354e-07   2.36854e-06 DIIS
   @DF-UKS iter  19: -1188.52216479689150   -1.50324e-08   1.40862e-06 DIIS
   @DF-UKS iter  20: -1188.52216480482844   -7.93693e-09   2.89619e-07 DIIS
   @DF-UKS iter  21: -1188.52216480517450   -3.46063e-10   6.88931e-08 DIIS
   @DF-UKS iter  22: -1188.52216480519155   -1.70530e-11   2.27967e-08 DIIS
   @DF-UKS iter  23: -1188.52216480519337   -1.81899e-12   3.28543e-09 DIIS
  Energy and wave function converged.


  ==> Post-Iterations <==

   @Spin Contamination Metric:   7.941432213E-03
   @S^2 Expected:                2.000000000E+00
   @S^2 Observed:                2.007941432E+00
   @S   Expected:                1.000000000E+00
   @S   Observed:                1.000000000E+00

    Orbital Energies [Eh]
    ---------------------

    Alpha Occupied:                                                       

       1Ap   -88.510152     2Ap   -88.471052     3Ap   -88.446143  
       4Ap    -8.117963     5Ap    -8.073582     6Ap    -8.049118  
       7Ap    -6.072880     8Ap    -6.066834     1App   -6.064816  
       9Ap    -6.032919    10Ap    -6.026497     2App   -6.016621  
      11Ap    -6.008034     3App   -6.000801    12Ap    -5.992370  
      13Ap    -1.017804    14Ap    -0.885121    15Ap    -0.718960  
      16Ap    -0.534377     4App   -0.509700    17Ap    -0.508764  
      18Ap    -0.404901     5App   -0.400348    19Ap    -0.360279  
       6App   -0.325617  

    Alpha Virtual:                                                        

      20Ap    -0.027718    21Ap     0.059998    22Ap     0.426320  
      23Ap     0.505776    24Ap     0.514383     7App    0.520047  
      25Ap     0.539881    26Ap     0.558129     8App    0.575437  
      27Ap     0.600170     9App    0.604889    28Ap     0.639235  
      29Ap     0.653548    30Ap     0.674488  

    Beta Occupied:                                                        

       1Ap   -88.506955     2Ap   -88.465758     3Ap   -88.442238  
       4Ap    -8.114422     5Ap    -8.067957     6Ap    -8.044871  
       7Ap    -6.071244     8Ap    -6.062837     1App   -6.055116  
       9Ap    -6.025022    10Ap    -6.014862     2App   -6.010158  
      11Ap    -6.003628     3App   -5.989265    12Ap    -5.988692  
      13Ap    -0.995830    14Ap    -0.852535    15Ap    -0.675093  
      16Ap    -0.507992    17Ap    -0.483314     4App   -0.471521  
       5App   -0.347196    18Ap    -0.344669  

    Beta Virtual:                                                         

      19Ap    -0.147454     6App   -0.098151    20Ap    -0.012156  
      21Ap     0.084844    22Ap     0.436519    23Ap     0.515857  
      24Ap     0.527807     7App    0.536787    25Ap     0.548295  
      26Ap     0.569338     8App    0.591737    27Ap     0.614340  
       9App    0.622277    28Ap     0.647695    29Ap     0.663700  
      30Ap     0.681511  

    Final Occupation by Irrep:
             Ap   App 
    DOCC [    18,    5 ]
    SOCC [     1,    1 ]

  @DF-UKS Final Energy: -1188.52216480519337

   => Energetics <=

    Nuclear Repulsion Energy =            174.8766318397108535
    One-Electron Energy =               -1989.9744000050161503
    Two-Electron Energy =                 682.7492006125539774
    DFT Exchange-Correlation Energy =     -56.1733360503090466
    Empirical Dispersion Energy =          -0.0002612021329956
    VV10 Nonlocal Energy =                  0.0000000000000000
    Total Energy =                      -1188.5221648051933698

  UHF NO Occupations:
  HONO-2 :   18 Ap 1.9970431
  HONO-1 :   19 Ap 1.0000000
  HONO-0 :    6App 1.0000000
  LUNO+0 :   20 Ap 0.0029569
  LUNO+1 :    7App 0.0004611
  LUNO+2 :    8App 0.0002104
  LUNO+3 :   21 Ap 0.0001886


Computation Completed

  //>>>>>>>>>>>>>>>>>>>>>>>>>>>>>>>>>>>//
  //              WB97X-D              //
  //<<<<<<<<<<<<<<<<<<<<<<<<<<<<<<<<<<<//

   => Loading Basis Set <=

    Name: AUG-CC-PVTZ
    Role: ORBITAL
    Keyword: BASIS
    atoms 1-3 entry S          line   906 file /apps/gb/PSI4/1.4.0/share/psi4/basis/aug-cc-pvtz.gbs 

   => WB97X-D: Empirical Dispersion <=

    Chai and Head-Gordon Dispersion Correction
    Chai, J.-D.; Head-Gordon, M. (2010), J. Chem. Phys., 132: 6615-6620

        s6 =       1.000000


         ---------------------------------------------------------
                                   SCF
               by Justin Turney, Rob Parrish, Andy Simmonett
                          and Daniel G. A. Smith
                              UKS Reference
                        1 Threads,   9536 MiB Core
         ---------------------------------------------------------

  ==> Geometry <==

    Molecular point group: cs
    Full point group: Cs

    Geometry (in Angstrom), charge = 0, multiplicity = 3:

       Center              X                  Y                   Z               Mass       
    ------------   -----------------  -----------------  -----------------  -----------------
         S            0.567128297894     0.296354482772     0.000000000000    31.972071174400
         S            0.567128297894    -1.671929133776     0.000000000000    31.972071174400
         S           -1.134256595789     1.375574651004     0.000000000000    31.972071174400

  Running in cs symmetry.

  Rotational constants: A =      0.85920  B =      0.08656  C =      0.07863 [cm^-1]
  Rotational constants: A =  25758.03102  B =   2594.90193  C =   2357.41271 [MHz]
  Nuclear repulsion =  174.876631839710853

  Charge       = 0
  Multiplicity = 3
  Electrons    = 48
  Nalpha       = 25
  Nbeta        = 23

  ==> Algorithm <==

  SCF Algorithm Type is DF.
  DIIS enabled.
  MOM disabled.
  Fractional occupation disabled.
  Guess Type is READ.
  Energy threshold   = 1.00e-08
  Density threshold  = 1.00e-08
  Integral threshold = 0.00e+00

  ==> Primary Basis <==

  Basis Set: AUG-CC-PVTZ
    Blend: AUG-CC-PVTZ
    Number of shells: 48
    Number of basis function: 150
    Number of Cartesian functions: 177
    Spherical Harmonics?: true
    Max angular momentum: 3

  ==> DFT Potential <==

   => Composite Functional: WB97X-D <= 

    wB97X-D Hyb-GGA Exchange-Correlation Functional

    J.-D. Chai and M. Head-Gordon, Phys. Chem. Chem. Phys. 10, 6615 (2008)

    Deriv               =              1
    GGA                 =           TRUE
    Meta                =          FALSE

    Exchange Hybrid     =           TRUE
    MP2 Hybrid          =          FALSE

   => Exchange-Correlation Functionals <=

    1.0000   wB97D range-separated functional

   => Exact (HF) Exchange <=

    0.7780            HF,LR [omega = 0.2000]
    0.2220               HF 

   => Molecular Quadrature <=

    Radial Scheme          =       TREUTLER
    Pruning Scheme         =           NONE
    Nuclear Scheme         =       TREUTLER

    BS radius alpha        =              1
    Pruning alpha          =              1
    Radial Points          =             99
    Spherical Points       =            590
    Total Points           =         169871
    Total Blocks           =           1393
    Max Points             =            256
    Max Functions          =            150
    Weights Tolerance      =       1.00E-15

   => Loading Basis Set <=

    Name: (AUG-CC-PVTZ AUX)
    Role: JKFIT
    Keyword: DF_BASIS_SCF
    atoms 1-3 entry S          line   730 file /apps/gb/PSI4/1.4.0/share/psi4/basis/aug-cc-pvtz-jkfit.gbs 

   => Loading Basis Set <=

    Name: AUG-CC-PVTZ
    Role: ORBITAL
    Keyword: BASIS
    atoms 1-3 entry S          line   906 file /apps/gb/PSI4/1.4.0/share/psi4/basis/aug-cc-pvtz.gbs 

  Reading orbitals from file 180, no projection.


  Computing basis projection from 3-21G to AUG-CC-PVTZ

  ==> Pre-Iterations <==

   -------------------------------------------------------
    Irrep   Nso     Nmo     Nalpha   Nbeta   Ndocc  Nsocc
   -------------------------------------------------------
     A'        99      99       0       0       0       0
     A"        51      51       0       0       0       0
   -------------------------------------------------------
    Total     150     150      25      23      23       2
   -------------------------------------------------------

  ==> Integral Setup <==

  ==> DiskDFJK: Density-Fitted J/K Matrices <==

    J tasked:                  Yes
    K tasked:                  Yes
    wK tasked:                 Yes
    Omega:               2.000E-01
    OpenMP threads:              1
    Integrals threads:           1
    Memory [MiB]:             6486
    Algorithm:                Core
    Integral Cache:           NONE
    Schwarz Cutoff:          1E-12
    Fitting Condition:       1E-10

   => Auxiliary Basis Set <=

  Basis Set: (AUG-CC-PVTZ AUX)
    Blend: AUG-CC-PVTZ-JKFIT
    Number of shells: 126
    Number of basis function: 438
    Number of Cartesian functions: 540
    Spherical Harmonics?: true
    Max angular momentum: 4

  Cached 100.0% of DFT collocation blocks in 0.651 [GiB].

  Minimum eigenvalue in the overlap matrix is 2.0256523512E-04.
  Using Symmetric Orthogonalization.

  SCF Guess: Orbitals guess was supplied from a previous computation.

  ==> Iterations <==

                           Total Energy        Delta E     RMS |[F,P]|

   @DF-UKS iter   0: -1194.05368974201178   -1.19405e+03   4.09417e-02 
   @DF-UKS iter   1: -1194.53110628146351   -4.77417e-01   2.12416e-03 DIIS
   @DF-UKS iter   2: -1194.54162777273882   -1.05215e-02   1.32760e-03 DIIS
   @DF-UKS iter   3: -1194.55264414825547   -1.10164e-02   4.57023e-04 DIIS
   @DF-UKS iter   4: -1194.55407038528983   -1.42624e-03   1.03945e-04 DIIS
   @DF-UKS iter   5: -1194.55419335047554   -1.22965e-04   3.57250e-05 DIIS
   @DF-UKS iter   6: -1194.55424748364521   -5.41332e-05   2.62352e-05 DIIS
   @DF-UKS iter   7: -1194.55427214724159   -2.46636e-05   1.84936e-05 DIIS
   @DF-UKS iter   8: -1194.55432662468093   -5.44774e-05   1.62467e-05 DIIS
   @DF-UKS iter   9: -1194.55438774044228   -6.11158e-05   9.95343e-06 DIIS
   @DF-UKS iter  10: -1194.55441606508521   -2.83246e-05   5.76666e-06 DIIS
   @DF-UKS iter  11: -1194.55442336412079   -7.29904e-06   2.42331e-06 DIIS
   @DF-UKS iter  12: -1194.55442423061004   -8.66489e-07   1.14423e-06 DIIS
   @DF-UKS iter  13: -1194.55442432639529   -9.57853e-08   4.69344e-07 DIIS
   @DF-UKS iter  14: -1194.55442434500674   -1.86114e-08   2.17977e-07 DIIS
   @DF-UKS iter  15: -1194.55442434717065   -2.16392e-09   1.24574e-07 DIIS
   @DF-UKS iter  16: -1194.55442434785573   -6.85077e-10   6.34598e-08 DIIS
   @DF-UKS iter  17: -1194.55442434792212   -6.63931e-11   2.93420e-08 DIIS
   @DF-UKS iter  18: -1194.55442434794236   -2.02363e-11   1.19328e-08 DIIS
   @DF-UKS iter  19: -1194.55442434794782   -5.45697e-12   5.22002e-09 DIIS
  Energy and wave function converged.


  ==> Post-Iterations <==

   @Spin Contamination Metric:   1.339784502E-02
   @S^2 Expected:                2.000000000E+00
   @S^2 Observed:                2.013397845E+00
   @S   Expected:                1.000000000E+00
   @S   Observed:                1.000000000E+00

    Orbital Energies [Eh]
    ---------------------

    Alpha Occupied:                                                       

       1Ap   -89.158157     2Ap   -89.126133     3Ap   -89.085972  
       4Ap    -8.160941     5Ap    -8.132272     6Ap    -8.092760  
       7Ap    -6.109521     1App   -6.106779     8Ap    -6.106078  
       9Ap    -6.086921    10Ap    -6.078922     2App   -6.071961  
      11Ap    -6.044015     3App   -6.040745    12Ap    -6.032773  
      13Ap    -0.970738    14Ap    -0.854839    15Ap    -0.710922  
      16Ap    -0.524640    17Ap    -0.495120     4App   -0.488724  
      18Ap    -0.403007     5App   -0.392135    19Ap    -0.349450  
       6App   -0.309627  

    Alpha Virtual:                                                        

      20Ap    -0.010767    21Ap     0.044079    22Ap     0.069445  
      23Ap     0.074668    24Ap     0.082488     7App    0.090173  
      25Ap     0.104932    26Ap     0.109725     8App    0.113419  
      27Ap     0.116721     9App    0.120665    28Ap     0.133730  
      29Ap     0.181770    10App    0.185424    11App    0.204038  
      30Ap     0.204624    31Ap     0.208257    32Ap     0.245424  
      33Ap     0.277082    34Ap     0.281935    12App    0.282103  
      13App    0.293016    35Ap     0.304838    14App    0.351361  
      36Ap     0.355218    37Ap     0.359035    38Ap     0.387154  
      15App    0.400491    39Ap     0.418499    16App    0.448381  
      40Ap     0.466517    17App    0.518510    41Ap     0.539680  
      42Ap     0.544625    43Ap     0.553318    18App    0.555841  
      44Ap     0.566596    45Ap     0.569540    19App    0.572463  
      46Ap     0.580474    20App    0.585885    21App    0.608865  
      47Ap     0.617776    48Ap     0.624106    49Ap     0.634361  
      22App    0.636337    50Ap     0.642848    51Ap     0.665996  
      23App    0.680322    52Ap     0.689761    53Ap     0.727149  
      24App    0.730886    25App    0.750705    54Ap     0.786050  
      26App    0.788950    55Ap     0.803743    27App    0.820306  
      56Ap     0.846555    57Ap     0.860425    58Ap     0.864212  
      59Ap     0.946937    28App    0.950338    29App    0.996252  
      60Ap     1.026243    30App    1.063690    61Ap     1.074528  
      62Ap     1.125601    31App    1.132128    63Ap     1.157077  
      64Ap     1.179064    65Ap     1.199186    32App    1.223641  
      33App    1.235864    66Ap     1.332177    67Ap     1.337638  
      68Ap     1.407453    69Ap     1.505337    70Ap     1.768100  
      34App    1.784730    35App    1.806035    71Ap     1.812325  
      36App    1.846108    72Ap     1.855864    37App    1.865058  
      73Ap     1.865585    74Ap     1.879024    38App    1.935451  
      75Ap     1.941840    76Ap     1.962650    77Ap     1.978379  
      78Ap     1.986038    39App    1.993660    40App    1.998766  
      79Ap     2.010692    41App    2.031314    42App    2.038745  
      80Ap     2.045085    43App    2.067217    81Ap     2.096354  
      82Ap     2.116450    44App    2.127310    83Ap     2.146974  
      45App    2.166469    84Ap     2.169057    46App    2.225162  
      85Ap     2.241098    86Ap     2.271363    47App    2.271684  
      87Ap     2.298505    48App    2.301859    49App    2.360646  
      88Ap     2.386282    89Ap     2.449006    90Ap     2.455368  
      91Ap     2.497617    92Ap     2.513807    50App    2.569508  
      93Ap     2.591004    51App    2.620707    94Ap     2.751648  
      95Ap     3.627782    96Ap     3.729937    97Ap     4.874406  
      98Ap     5.190881    99Ap     5.616692  

    Beta Occupied:                                                        

       1Ap   -89.155100     2Ap   -89.120718     3Ap   -89.082532  
       4Ap    -8.157771     5Ap    -8.126918     6Ap    -8.089277  
       7Ap    -6.107773     8Ap    -6.103221     1App   -6.097372  
       9Ap    -6.075982    10Ap    -6.070376     2App   -6.065946  
      11Ap    -6.040283     3App   -6.030497    12Ap    -6.030221  
      13Ap    -0.948616    14Ap    -0.820791    15Ap    -0.667307  
      16Ap    -0.500944    17Ap    -0.467260     4App   -0.452022  
       5App   -0.343948    18Ap    -0.337654  

    Beta Virtual:                                                         

      19Ap    -0.137132     6App   -0.079976    20Ap     0.004265  
      21Ap     0.053344    22Ap     0.071313    23Ap     0.081099  
      24Ap     0.091357     7App    0.093380    25Ap     0.111207  
      26Ap     0.114924     8App    0.117038    27Ap     0.120389  
       9App    0.126616    28Ap     0.138930    29Ap     0.184839  
      10App    0.192408    30Ap     0.206613    31Ap     0.212776  
      11App    0.215993    32Ap     0.254408    33Ap     0.281074  
      34Ap     0.291179    12App    0.292333    13App    0.303374  
      35Ap     0.311392    14App    0.356688    36Ap     0.358552  
      37Ap     0.365746    38Ap     0.387965    15App    0.404609  
      39Ap     0.424698    16App    0.455670    40Ap     0.473654  
      17App    0.522993    41Ap     0.544001    42Ap     0.550813  
      43Ap     0.559313    18App    0.568221    44Ap     0.572378  
      45Ap     0.576220    19App    0.580560    46Ap     0.590752  
      20App    0.591284    47Ap     0.625977    21App    0.634469  
      48Ap     0.638812    49Ap     0.645574    22App    0.649211  
      50Ap     0.658030    51Ap     0.679100    23App    0.692578  
      52Ap     0.700344    53Ap     0.738550    24App    0.740092  
      25App    0.767710    54Ap     0.789845    26App    0.793063  
      55Ap     0.809018    27App    0.825728    56Ap     0.857053  
      57Ap     0.866554    58Ap     0.873315    59Ap     0.951225  
      28App    0.954859    29App    1.002057    60Ap     1.030616  
      30App    1.068482    61Ap     1.078688    62Ap     1.130374  
      31App    1.137868    63Ap     1.161838    64Ap     1.187521  
      65Ap     1.206024    32App    1.232238    33App    1.244416  
      66Ap     1.341505    67Ap     1.347532    68Ap     1.419639  
      69Ap     1.518465    70Ap     1.787240    34App    1.802333  
      35App    1.823757    71Ap     1.829033    36App    1.857818  
      72Ap     1.870322    73Ap     1.875628    37App    1.879206  
      74Ap     1.891046    38App    1.952479    75Ap     1.954499  
      76Ap     1.973135    77Ap     1.990863    78Ap     1.999795  
      39App    2.010450    40App    2.013294    79Ap     2.021487  
      41App    2.048104    42App    2.057825    80Ap     2.061355  
      43App    2.090830    81Ap     2.111626    82Ap     2.146772  
      44App    2.165421    83Ap     2.168590    45App    2.187559  
      84Ap     2.189986    46App    2.245859    85Ap     2.266316  
      86Ap     2.287429    47App    2.290227    87Ap     2.316547  
      48App    2.319106    49App    2.379309    88Ap     2.401426  
      89Ap     2.459879    90Ap     2.471204    91Ap     2.509129  
      92Ap     2.524335    50App    2.583552    93Ap     2.602669  
      51App    2.640017    94Ap     2.764434    95Ap     3.636727  
      96Ap     3.736521    97Ap     4.887943    98Ap     5.202032  
      99Ap     5.625034  

    Final Occupation by Irrep:
             Ap   App 
    DOCC [    18,    5 ]
    SOCC [     1,    1 ]

  @DF-UKS Final Energy: -1194.55442434794782

   => Energetics <=

    Nuclear Repulsion Energy =            174.8766318397108535
    One-Electron Energy =               -1997.3296506065580616
    Two-Electron Energy =                 684.1340550807483396
    DFT Exchange-Correlation Energy =     -56.2351994597159077
    Empirical Dispersion Energy =          -0.0002612021329956
    VV10 Nonlocal Energy =                  0.0000000000000000
    Total Energy =                      -1194.5544243479478155

  UHF NO Occupations:
  HONO-2 :   18 Ap 1.9975660
  HONO-1 :   19 Ap 1.0000000
  HONO-0 :    6App 1.0000000
  LUNO+0 :   20 Ap 0.0024340
  LUNO+1 :    7App 0.0019429
  LUNO+2 :   21 Ap 0.0010474
  LUNO+3 :    8App 0.0005840


Computation Completed


Properties will be evaluated at   0.000000,   0.000000,   0.000000 [a0]

Properties computed using the SCF density matrix

  Nuclear Dipole Moment: [e a0]
     X:     0.0000      Y:     0.0000      Z:     0.0000

  Electronic Dipole Moment: [e a0]
     X:    -0.1671      Y:     0.4079      Z:     0.0000

  Dipole Moment: [e a0]
     X:    -0.1671      Y:     0.4079      Z:     0.0000     Total:     0.4408

  Dipole Moment: [D]
     X:    -0.4247      Y:     1.0367      Z:     0.0000     Total:     1.1203


*** tstop() called on c2-18.compute.lan at Wed Feb  3 12:11:18 2021
Module time:
	user time   =     134.82 seconds =       2.25 minutes
	system time =       1.08 seconds =       0.02 minutes
	total time  =        136 seconds =       2.27 minutes
Total time:
	user time   =     291.61 seconds =       4.86 minutes
	system time =       2.78 seconds =       0.05 minutes
	total time  =        295 seconds =       4.92 minutes

*** tstart() called on c2-18.compute.lan
*** at Wed Feb  3 12:11:18 2021


         ------------------------------------------------------------
                                   SCF GRAD                          
                          Rob Parrish, Justin Turney,                
                       Andy Simmonett, and Alex Sokolov              
         ------------------------------------------------------------

  ==> Geometry <==

    Molecular point group: cs
    Full point group: Cs

    Geometry (in Angstrom), charge = 0, multiplicity = 3:

       Center              X                  Y                   Z               Mass       
    ------------   -----------------  -----------------  -----------------  -----------------
         S            0.567128297894     0.296354482772     0.000000000000    31.972071174400
         S            0.567128297894    -1.671929133776     0.000000000000    31.972071174400
         S           -1.134256595789     1.375574651004     0.000000000000    31.972071174400

  Nuclear repulsion =  174.876631839710853

  ==> Basis Set <==

  Basis Set: AUG-CC-PVTZ
    Blend: AUG-CC-PVTZ
    Number of shells: 48
    Number of basis function: 150
    Number of Cartesian functions: 177
    Spherical Harmonics?: true
    Max angular momentum: 3

  ==> DFJKGrad: Density-Fitted SCF Gradients <==

    Gradient:                    1
    J tasked:                  Yes
    K tasked:                  Yes
    wK tasked:                 Yes
    Omega:               2.000E-01
    OpenMP threads:              1
    Integrals threads:           1
    Memory [MiB]:             7152
    Schwarz Cutoff:          0E+00
    Fitting Condition:       1E-10

   => Auxiliary Basis Set <=

  Basis Set: (AUG-CC-PVTZ AUX)
    Blend: AUG-CC-PVTZ-JKFIT
    Number of shells: 126
    Number of basis function: 438
    Number of Cartesian functions: 540
    Spherical Harmonics?: true
    Max angular momentum: 4

  ==> DFT Potential <==

   => Composite Functional: WB97X-D <= 

    wB97X-D Hyb-GGA Exchange-Correlation Functional

    J.-D. Chai and M. Head-Gordon, Phys. Chem. Chem. Phys. 10, 6615 (2008)

    Deriv               =              1
    GGA                 =           TRUE
    Meta                =          FALSE

    Exchange Hybrid     =           TRUE
    MP2 Hybrid          =          FALSE

   => Exchange-Correlation Functionals <=

    1.0000   wB97D range-separated functional

   => Exact (HF) Exchange <=

    0.7780            HF,LR [omega = 0.2000]
    0.2220               HF 

   => Molecular Quadrature <=

    Radial Scheme          =       TREUTLER
    Pruning Scheme         =           NONE
    Nuclear Scheme         =       TREUTLER

    BS radius alpha        =              1
    Pruning alpha          =              1
    Radial Points          =             99
    Spherical Points       =            590
    Total Points           =         169871
    Total Blocks           =           1393
    Max Points             =            256
    Max Functions          =            150
    Weights Tolerance      =       1.00E-15


  -Total Gradient:
     Atom            X                  Y                   Z
    ------   -----------------  -----------------  -----------------
       1       -0.011318915915     0.008642235388     0.000000000000
       2        0.005645346573    -0.011531616519     0.000000000000
       3        0.005682577833     0.002929319404     0.000000000000


*** tstop() called on c2-18.compute.lan at Wed Feb  3 12:11:38 2021
Module time:
	user time   =      20.00 seconds =       0.33 minutes
	system time =       0.09 seconds =       0.00 minutes
	total time  =         20 seconds =       0.33 minutes
Total time:
	user time   =     311.61 seconds =       5.19 minutes
	system time =       2.87 seconds =       0.05 minutes
	total time  =        315 seconds =       5.25 minutes

			-----------------------------------------
			 OPTKING 2.0: for geometry optimizations 
			  - R.A. King,  Bethel University        
			-----------------------------------------

	Previous internal coordinate definitions found.
	---Fragment 1 Geometry and Gradient---
	 S           1.0717171610        0.5600288085        0.0000000000
	 S           1.0717171610       -3.1594881640        0.0000000000
	 S          -2.1434343220        2.5994593555        0.0000000000
	            -0.0113189159        0.0086422354        0.0000000000
	             0.0056453466       -0.0115316165        0.0000000000
	             0.0056825778        0.0029293194        0.0000000000

	---Fragment 1 Intrafragment Coordinates---
	 - Coordinate -           - BOHR/RAD -       - ANG/DEG -
	 R(1,2)           =         3.719517	       1.968284
	 R(1,3)           =         3.807424	       2.014802
	 B(2,1,3)         =         2.136069	     122.387718

	Current energy   :     -1194.5544243479

	Energy change for the previous step:
		Projected    :         0.0043344510
		Actual       :        -0.0102934648

	Performing BFGS update.
	Previous computed or guess Hessian on step 1.
	Steps to be used in Hessian update: 1
	Taking RFO optimization step.
	Going to follow RFO solution 1.
	Using RFO vector 1.
	Norm of target step-size    0.08377
	Projected energy change by RFO approximation:        -0.0048381447

	Back-transformation to cartesian coordinates...
	Successfully converged to displaced geometry.

	--- Internal Coordinate Step in ANG or DEG, aJ/ANG or AJ/DEG ---
	 ---------------------------------------------------------------------------
	   Coordinate                Previous        Force       Change         New 
	   ----------                --------       ------       ------       ------
	    1 R(1,2)          =      1.968284    -0.095126    -0.022983     1.945300
	    2 R(1,3)          =      2.014802     0.026655    -0.011998     2.002803
	    3 B(2,1,3)        =    122.387718    -0.001596    -3.892912   118.494806
	 ---------------------------------------------------------------------------
	Successfully symmetrized geometry.

  ==> Convergence Check <==

  Measures of convergence in internal coordinates in au.
  Criteria marked as inactive (o), active & met (*), and active & unmet ( ).
  ---------------------------------------------------------------------------------------------
   Step     Total Energy     Delta E     MAX Force     RMS Force      MAX Disp      RMS Disp   
  ---------------------------------------------------------------------------------------------
    Convergence Criteria             o    2.00e-06 *    1.00e-06 *    6.00e-06 *    4.00e-06 *
  ---------------------------------------------------------------------------------------------
      2   -1194.55442435   -1.03e-02 o    2.10e-02      1.39e-02      6.79e-02      4.84e-02    ~
  ---------------------------------------------------------------------------------------------

	Writing optimization data to binary file.
	Structure for next step:
	Cartesian Geometry (in Angstrom)
	    S     0.5981228105   0.3087977530   0.0000000000
	    S     0.5287387549  -1.6352646154   0.0000000000
	    S    -1.1268615653   1.3264668624   0.0000000000
			--------------------------
			 OPTKING Finished Execution 
			--------------------------

    Structure for next step:
    Molecular point group: cs
    Full point group: Cs

    Geometry (in Angstrom), charge = 0, multiplicity = 3:

    S       
    S             1          r1
    S             1          r2      2          a1

    a1        =  118.4948062980
    r1        =    1.9453001489
    r2        =    2.0028034213

gradient() will perform analytic gradient computation.

*** tstart() called on c2-18.compute.lan
*** at Wed Feb  3 12:11:38 2021


  //>>>>>>>>>>>>>>>>>>>>>>>>>>>>>>>>>>>//
  //       Guess SCF, 3-21G Basis      //
  //<<<<<<<<<<<<<<<<<<<<<<<<<<<<<<<<<<<//

   => Loading Basis Set <=

    Name: 3-21G
    Role: ORBITAL
    Keyword: BASIS
    atoms 1-3 entry S          line   198 file /apps/gb/PSI4/1.4.0/share/psi4/basis/3-21g.gbs 


         ---------------------------------------------------------
                           SCF Castup computation                     => WB97X-D: Empirical Dispersion <=

    Chai and Head-Gordon Dispersion Correction
    Chai, J.-D.; Head-Gordon, M. (2010), J. Chem. Phys., 132: 6615-6620

        s6 =       1.000000


         ---------------------------------------------------------
                                   SCF
               by Justin Turney, Rob Parrish, Andy Simmonett
                          and Daniel G. A. Smith
                              UKS Reference
                        1 Threads,   9536 MiB Core
         ---------------------------------------------------------

  ==> Geometry <==

    Molecular point group: cs
    Full point group: Cs

    Geometry (in Angstrom), charge = 0, multiplicity = 3:

       Center              X                  Y                   Z               Mass       
    ------------   -----------------  -----------------  -----------------  -----------------
         S            0.586728180056     0.329934834410     0.000000000000    31.972071174400
         S            0.586728180056    -1.615365314495     0.000000000000    31.972071174400
         S           -1.173456360113     1.285430480085     0.000000000000    31.972071174400

  Running in cs symmetry.

  Rotational constants: A =      0.77674  B =      0.09158  C =      0.08192 [cm^-1]
  Rotational constants: A =  23286.02191  B =   2745.54878  C =   2455.97586 [MHz]
  Nuclear repulsion =  177.204593617085322

  Charge       = 0
  Multiplicity = 3
  Electrons    = 48
  Nalpha       = 25
  Nbeta        = 23

  ==> Algorithm <==

  SCF Algorithm Type is DF.
  DIIS enabled.
  MOM disabled.
  Fractional occupation disabled.
  Guess Type is READ.
  Energy threshold   = 1.00e-08
  Density threshold  = 1.00e-08
  Integral threshold = 0.00e+00

  ==> Primary Basis <==

  Basis Set: 3-21G
    Blend: 3-21G
    Number of shells: 21
    Number of basis function: 39
    Number of Cartesian functions: 39
    Spherical Harmonics?: false
    Max angular momentum: 1

  ==> DFT Potential <==

   => Composite Functional: WB97X-D <= 

    wB97X-D Hyb-GGA Exchange-Correlation Functional

    J.-D. Chai and M. Head-Gordon, Phys. Chem. Chem. Phys. 10, 6615 (2008)

    Deriv               =              1
    GGA                 =           TRUE
    Meta                =          FALSE

    Exchange Hybrid     =           TRUE
    MP2 Hybrid          =          FALSE

   => Exchange-Correlation Functionals <=

    1.0000   wB97D range-separated functional

   => Exact (HF) Exchange <=

    0.7780            HF,LR [omega = 0.2000]
    0.2220               HF 

   => Molecular Quadrature <=

    Radial Scheme          =       TREUTLER
    Pruning Scheme         =           NONE
    Nuclear Scheme         =       TREUTLER

    BS radius alpha        =              1
    Pruning alpha          =              1
    Radial Points          =             99
    Spherical Points       =            590
    Total Points           =         156167
    Total Blocks           =           1226
    Max Points             =            256
    Max Functions          =             36
    Weights Tolerance      =       1.00E-15

   => Loading Basis Set <=

    Name: (3-21G AUX)
    Role: JKFIT
    Keyword: DF_BASIS_SCF
    atoms 1-3 entry S          line   908 file /apps/gb/PSI4/1.4.0/share/psi4/basis/def2-svp-jkfit.gbs 

  ==> Pre-Iterations <==

   -------------------------------------------------------
    Irrep   Nso     Nmo     Nalpha   Nbeta   Ndocc  Nsocc
   -------------------------------------------------------
     A'        30      30       0       0       0       0
     A"         9       9       0       0       0       0
   -------------------------------------------------------
    Total      39      39      25      23      23       2
   -------------------------------------------------------

  ==> Integral Setup <==

  ==> DiskDFJK: Density-Fitted J/K Matrices <==

    J tasked:                  Yes
    K tasked:                  Yes
    wK tasked:                 Yes
    Omega:               2.000E-01
    OpenMP threads:              1
    Integrals threads:           1
    Memory [MiB]:             7023
    Algorithm:                Core
    Integral Cache:           NONE
    Schwarz Cutoff:          1E-12
    Fitting Condition:       1E-10

   => Auxiliary Basis Set <=

  Basis Set: (3-21G AUX)
    Blend: DEF2-SVP-JKFIT
    Number of shells: 114
    Number of basis function: 465
    Number of Cartesian functions: 465
    Spherical Harmonics?: false
    Max angular momentum: 4

  Cached 100.0% of DFT collocation blocks in 0.126 [GiB].

  Minimum eigenvalue in the overlap matrix is 2.6476132400E-02.
  Using Symmetric Orthogonalization.


Warning! Guess was READ without Ca set, switching to CORE!
           This option should have been configured at the driver level.

  SCF Guess: Core (One-Electron) Hamiltonian.

  ==> Iterations <==

                           Total Energy        Delta E     RMS |[F,P]|

    Occupation by irrep:
             Ap   App 
    DOCC [    18,    5 ]
    SOCC [     2,    0 ]

   @DF-UKS iter   1: -1178.21401538938380   -1.17821e+03   1.04683e-01 DIIS
    Occupation by irrep:
             Ap   App 
    DOCC [    18,    5 ]
    SOCC [     1,    1 ]

   @DF-UKS iter   2: -1179.09333842166734   -8.79323e-01   8.40332e-02 DIIS
   @DF-UKS iter   3: -1185.61245017496231   -6.51911e+00   4.96222e-02 DIIS
   @DF-UKS iter   4: -1187.34792144182052   -1.73547e+00   3.52086e-02 DIIS
   @DF-UKS iter   5: -1188.29592181295129   -9.48000e-01   1.71471e-02 DIIS
   @DF-UKS iter   6: -1188.50167474880891   -2.05753e-01   3.82289e-03 DIIS
   @DF-UKS iter   7: -1188.51330826636104   -1.16335e-02   1.12397e-03 DIIS
   @DF-UKS iter   8: -1188.51489793983092   -1.58967e-03   4.30189e-04 DIIS
   @DF-UKS iter   9: -1188.51532796844890   -4.30029e-04   1.62881e-04 DIIS
   @DF-UKS iter  10: -1188.51550652240167   -1.78554e-04   1.42674e-04 DIIS
   @DF-UKS iter  11: -1188.51576070153283   -2.54179e-04   1.39333e-04 DIIS
   @DF-UKS iter  12: -1188.51615349347821   -3.92792e-04   1.51776e-04 DIIS
   @DF-UKS iter  13: -1188.51651581751003   -3.62324e-04   1.37573e-04 DIIS
   @DF-UKS iter  14: -1188.51713657432947   -6.20757e-04   3.16429e-04 DIIS
   @DF-UKS iter  15: -1188.51722886486368   -9.22905e-05   4.85395e-05 DIIS
   @DF-UKS iter  16: -1188.51724798137298   -1.91165e-05   9.83382e-05 DIIS
   @DF-UKS iter  17: -1188.51726993357715   -2.19522e-05   7.01103e-06 DIIS
   @DF-UKS iter  18: -1188.51726930067480    6.32902e-07   1.86414e-05 DIIS
   @DF-UKS iter  19: -1188.51726997529613   -6.74621e-07   1.31456e-05 DIIS
   @DF-UKS iter  20: -1188.51727032490089   -3.49605e-07   4.47804e-07 DIIS
   @DF-UKS iter  21: -1188.51727032596636   -1.06547e-09   1.84723e-07 DIIS
   @DF-UKS iter  22: -1188.51727032606368   -9.73159e-11   5.32662e-08 DIIS
   @DF-UKS iter  23: -1188.51727032607005   -6.36646e-12   1.80071e-08 DIIS
   @DF-UKS iter  24: -1188.51727032607005    0.00000e+00   1.74146e-08 DIIS
   @DF-UKS iter  25: -1188.51727032607050   -4.54747e-13   1.29384e-09 DIIS
  Energy and wave function converged.


  ==> Post-Iterations <==

   @Spin Contamination Metric:   5.579626801E-03
   @S^2 Expected:                2.000000000E+00
   @S^2 Observed:                2.005579627E+00
   @S   Expected:                1.000000000E+00
   @S   Observed:                1.000000000E+00

    Orbital Energies [Eh]
    ---------------------

    Alpha Occupied:                                                       

       1Ap   -88.507203     2Ap   -88.472359     3Ap   -88.441537  
       4Ap    -8.116619     5Ap    -8.075731     6Ap    -8.045614  
       7Ap    -6.071362     8Ap    -6.065186     1App   -6.063069  
       9Ap    -6.035015    10Ap    -6.029043     2App   -6.018295  
      11Ap    -6.004404     3App   -5.997566    12Ap    -5.988244  
      13Ap    -1.026942    14Ap    -0.887804    15Ap    -0.716513  
      16Ap    -0.533555     4App   -0.513024    17Ap    -0.512576  
      18Ap    -0.408701     5App   -0.400750    19Ap    -0.358245  
       6App   -0.323659  

    Alpha Virtual:                                                        

      20Ap    -0.017073    21Ap     0.061288    22Ap     0.420450  
      23Ap     0.503794    24Ap     0.515833     7App    0.519359  
      25Ap     0.541330    26Ap     0.556524     8App    0.577795  
      27Ap     0.593496     9App    0.601743    28Ap     0.638113  
      29Ap     0.653835    30Ap     0.684312  

    Beta Occupied:                                                        

       1Ap   -88.504171     2Ap   -88.466907     3Ap   -88.437740  
       4Ap    -8.113271     5Ap    -8.069950     6Ap    -8.041475  
       7Ap    -6.069784     8Ap    -6.061631     1App   -6.053596  
       9Ap    -6.026663    10Ap    -6.017015     2App   -6.011963  
      11Ap    -6.000168     3App   -5.985860    12Ap    -5.985070  
      13Ap    -1.005461    14Ap    -0.854390    15Ap    -0.673636  
      16Ap    -0.509396    17Ap    -0.484962     4App   -0.475350  
       5App   -0.349114    18Ap    -0.344447  

[...]
      13Ap    -0.967530    14Ap    -0.841666    15Ap    -0.718752  
      16Ap    -0.513403    17Ap    -0.500961     4App   -0.487416  
       5App   -0.384909    18Ap    -0.379819    19Ap    -0.379035  
       6App   -0.316461  

    Alpha Virtual:                                                        

      20Ap     0.001031    21Ap     0.025795    22Ap     0.069932  
      23Ap     0.071088    24Ap     0.078409     7App    0.091313  
      25Ap     0.104752    26Ap     0.109954    27Ap     0.113262  
       8App    0.114463     9App    0.117376    28Ap     0.137836  
      29Ap     0.185351    10App    0.187722    30Ap     0.203545  
      11App    0.204476    31Ap     0.214283    32Ap     0.256448  
      33Ap     0.262862    12App    0.275791    34Ap     0.279217  
      35Ap     0.290510    13App    0.300394    14App    0.350379  
      36Ap     0.350761    37Ap     0.362035    38Ap     0.389259  
      15App    0.390590    39Ap     0.413078    16App    0.449539  
      40Ap     0.482025    17App    0.530163    41Ap     0.530668  
      18App    0.549907    42Ap     0.551260    19App    0.556536  
      43Ap     0.556834    44Ap     0.564083    45Ap     0.567991  
      20App    0.570380    46Ap     0.587718    47Ap     0.603585  
      21App    0.612627    48Ap     0.623240    49Ap     0.633410  
      22App    0.638077    50Ap     0.641185    51Ap     0.666462  
      52Ap     0.689044    23App    0.696392    24App    0.730899  
      53Ap     0.737099    25App    0.745563    54Ap     0.789998  
      26App    0.792415    55Ap     0.804667    56Ap     0.806667  
      27App    0.813043    57Ap     0.852899    58Ap     0.886960  
      59Ap     0.963580    28App    0.989865    29App    0.997730  
      60Ap     1.033664    61Ap     1.039542    30App    1.041019  
      31App    1.125157    62Ap     1.126022    63Ap     1.151870  
      64Ap     1.169413    32App    1.194884    65Ap     1.212292  
      33App    1.215796    66Ap     1.284565    67Ap     1.303576  
      68Ap     1.407988    69Ap     1.495439    70Ap     1.778929  
      34App    1.788358    35App    1.803827    71Ap     1.829023  
      72Ap     1.845284    73Ap     1.851296    36App    1.858264  
      37App    1.859685    74Ap     1.864077    75Ap     1.917596  
      38App    1.930930    76Ap     1.970364    77Ap     1.990056  
      39App    1.993353    40App    2.000196    78Ap     2.001851  
      41App    2.004535    79Ap     2.032448    80Ap     2.041681  
      42App    2.058106    43App    2.068041    81Ap     2.099223  
      82Ap     2.128011    44App    2.139605    45App    2.158358  
      83Ap     2.174011    84Ap     2.179773    46App    2.230492  
      85Ap     2.262914    47App    2.263907    86Ap     2.279542  
      48App    2.282182    87Ap     2.304709    49App    2.328709  
      88Ap     2.343383    89Ap     2.407492    90Ap     2.428280  
      91Ap     2.450540    92Ap     2.529273    50App    2.571730  
      51App    2.582429    93Ap     2.636629    94Ap     2.659859  
      95Ap     3.645375    96Ap     3.675922    97Ap     4.620554  
      98Ap     5.259281    99Ap     5.624309  

    Beta Occupied:                                                        

       1Ap   -89.158400     2Ap   -89.102753     3Ap   -89.102749  
       4Ap    -8.160047     5Ap    -8.108618     6Ap    -8.108617  
       7Ap    -6.109567     8Ap    -6.105628     1App   -6.099575  
       9Ap    -6.058813    10Ap    -6.058813    11Ap    -6.050711  
      12Ap    -6.050711     2App   -6.048641     3App   -6.048641  
      13Ap    -0.946621    14Ap    -0.807521    15Ap    -0.677871  
      16Ap    -0.498192    17Ap    -0.467521     4App   -0.447889  
       5App   -0.336274    18Ap    -0.331747  

    Beta Virtual:                                                         

      19Ap    -0.140728     6App   -0.090833    20Ap     0.018262  
      21Ap     0.034235    22Ap     0.072998    23Ap     0.078262  
      24Ap     0.079437     7App    0.093566    25Ap     0.107631  
      26Ap     0.113942     8App    0.117602    27Ap     0.117851  
       9App    0.122514    28Ap     0.141699    29Ap     0.188090  
      10App    0.197109    30Ap     0.204951    11App    0.213937  
      31Ap     0.227015    32Ap     0.267207    33Ap     0.267326  
      34Ap     0.285054    12App    0.285477    35Ap     0.298138  
      13App    0.312698    14App    0.355179    36Ap     0.357153  
      37Ap     0.365157    38Ap     0.390996    15App    0.394812  
      39Ap     0.418807    16App    0.456568    40Ap     0.490742  
      41Ap     0.532715    17App    0.534585    42Ap     0.558654  
      18App    0.560404    43Ap     0.561337    19App    0.564486  
      44Ap     0.569597    45Ap     0.572517    20App    0.577156  
      46Ap     0.596254    47Ap     0.610330    21App    0.628885  
      48Ap     0.641387    49Ap     0.645094    22App    0.661427  
      50Ap     0.665053    51Ap     0.678791    52Ap     0.695353  
      23App    0.713630    24App    0.745509    53Ap     0.750339  
      25App    0.754269    26App    0.797293    54Ap     0.797533  
      55Ap     0.811743    56Ap     0.813818    27App    0.817387  
      57Ap     0.863281    58Ap     0.896397    59Ap     0.968532  
      28App    0.995592    29App    1.003583    60Ap     1.038322  
      61Ap     1.042779    30App    1.046262    62Ap     1.130175  
      31App    1.131104    63Ap     1.158225    64Ap     1.178522  
      32App    1.201646    65Ap     1.220284    33App    1.224834  
      66Ap     1.291952    67Ap     1.314788    68Ap     1.421056  
      69Ap     1.508490    70Ap     1.796907    34App    1.806991  
      35App    1.819986    71Ap     1.845624    72Ap     1.860282  
      73Ap     1.863608    36App    1.872497    74Ap     1.875288  
      37App    1.876817    75Ap     1.923556    38App    1.948257  
      76Ap     1.981638    77Ap     2.003931    39App    2.010637  
      78Ap     2.013143    40App    2.014071    41App    2.018332  
      79Ap     2.049752    80Ap     2.064296    42App    2.082335  
      43App    2.087043    81Ap     2.122352    82Ap     2.146898  
      44App    2.171701    45App    2.181474    83Ap     2.189187  
      84Ap     2.207697    46App    2.256112    47App    2.282710  
      85Ap     2.284391    86Ap     2.300933    48App    2.301466  
      87Ap     2.322584    49App    2.345153    88Ap     2.360666  
      89Ap     2.423488    90Ap     2.438532    91Ap     2.460263  
      92Ap     2.539166    50App    2.589285    51App    2.597064  
      93Ap     2.650489    94Ap     2.676749    95Ap     3.651814  
      96Ap     3.683105    97Ap     4.634112    98Ap     5.271030  
      99Ap     5.632303  

    Final Occupation by Irrep:
             Ap   App 
    DOCC [    18,    5 ]
    SOCC [     1,    1 ]

  @DF-UKS Final Energy: -1194.55729645457268

   => Energetics <=

    Nuclear Repulsion Energy =            175.9290652965375443
    One-Electron Energy =               -1999.4488423518064337
    Two-Electron Energy =                 685.1790897472982351
    DFT Exchange-Correlation Energy =     -56.2164087253368834
    Empirical Dispersion Energy =          -0.0002004212654710
    VV10 Nonlocal Energy =                  0.0000000000000000
    Total Energy =                      -1194.5572964545729064

  UHF NO Occupations:
  HONO-2 :   18 Ap 1.9912277
  HONO-1 :   19 Ap 1.0000000
  HONO-0 :    6App 1.0000000
  LUNO+0 :   20 Ap 0.0087723
  LUNO+1 :    7App 0.0015622
  LUNO+2 :    8App 0.0009442
  LUNO+3 :   21 Ap 0.0004748


Computation Completed


Properties will be evaluated at   0.000000,   0.000000,   0.000000 [a0]

Properties computed using the SCF density matrix

  Nuclear Dipole Moment: [e a0]
     X:     0.0000      Y:     0.0000      Z:     0.0000

  Electronic Dipole Moment: [e a0]
     X:     0.2357      Y:     0.1734      Z:     0.0000

  Dipole Moment: [e a0]
     X:     0.2357      Y:     0.1734      Z:     0.0000     Total:     0.2926

  Dipole Moment: [D]
     X:     0.5991      Y:     0.4408      Z:     0.0000     Total:     0.7438


*** tstop() called on c2-18.compute.lan at Wed Feb  3 13:47:10 2021
Module time:
	user time   =      90.64 seconds =       1.51 minutes
	system time =       0.26 seconds =       0.00 minutes
	total time  =         91 seconds =       1.52 minutes
Total time:
	user time   =    6010.68 seconds =     100.18 minutes
	system time =      31.94 seconds =       0.53 minutes
	total time  =       6047 seconds =     100.78 minutes

*** tstart() called on c2-18.compute.lan
*** at Wed Feb  3 13:47:10 2021


         ------------------------------------------------------------
                                   SCF GRAD                          
                          Rob Parrish, Justin Turney,                
                       Andy Simmonett, and Alex Sokolov              
         ------------------------------------------------------------

  ==> Geometry <==

    Molecular point group: cs
    Full point group: Cs

    Geometry (in Angstrom), charge = 0, multiplicity = 3:

       Center              X                  Y                   Z               Mass       
    ------------   -----------------  -----------------  -----------------  -----------------
         S            0.642110515203     0.472434280138     0.000000000000    31.972071174400
         S            0.642306605184    -1.545568533530     0.000000000000    31.972071174400
         S           -1.284417120388     1.073134253392     0.000000000000    31.972071174400

  Nuclear repulsion =  175.929065296537544

  ==> Basis Set <==

  Basis Set: AUG-CC-PVTZ
    Blend: AUG-CC-PVTZ
    Number of shells: 48
    Number of basis function: 150
    Number of Cartesian functions: 177
    Spherical Harmonics?: true
    Max angular momentum: 3

  ==> DFJKGrad: Density-Fitted SCF Gradients <==

    Gradient:                    1
    J tasked:                  Yes
    K tasked:                  Yes
    wK tasked:                 Yes
    Omega:               2.000E-01
    OpenMP threads:              1
    Integrals threads:           1
    Memory [MiB]:             7152
    Schwarz Cutoff:          0E+00
    Fitting Condition:       1E-10

   => Auxiliary Basis Set <=

  Basis Set: (AUG-CC-PVTZ AUX)
    Blend: AUG-CC-PVTZ-JKFIT
    Number of shells: 126
    Number of basis function: 438
    Number of Cartesian functions: 540
    Spherical Harmonics?: true
    Max angular momentum: 4

  ==> DFT Potential <==

   => Composite Functional: WB97X-D <= 

    wB97X-D Hyb-GGA Exchange-Correlation Functional

    J.-D. Chai and M. Head-Gordon, Phys. Chem. Chem. Phys. 10, 6615 (2008)

    Deriv               =              1
    GGA                 =           TRUE
    Meta                =          FALSE

    Exchange Hybrid     =           TRUE
    MP2 Hybrid          =          FALSE

   => Exchange-Correlation Functionals <=

    1.0000   wB97D range-separated functional

   => Exact (HF) Exchange <=

    0.7780            HF,LR [omega = 0.2000]
    0.2220               HF 

   => Molecular Quadrature <=

    Radial Scheme          =       TREUTLER
    Pruning Scheme         =           NONE
    Nuclear Scheme         =       TREUTLER

    BS radius alpha        =              1
    Pruning alpha          =              1
    Radial Points          =             99
    Spherical Points       =            590
    Total Points           =         170135
    Total Blocks           =           1391
    Max Points             =            256
    Max Functions          =            150
    Weights Tolerance      =       1.00E-15


  -Total Gradient:
     Atom            X                  Y                   Z
    ------   -----------------  -----------------  -----------------
       1       -0.001482173967    -0.001090997363     0.000000000000
       2        0.012996258670    -0.016097064963     0.000000000000
       3       -0.011500888427     0.017197772933     0.000000000000


*** tstop() called on c2-18.compute.lan at Wed Feb  3 13:47:29 2021
Module time:
	user time   =      18.67 seconds =       0.31 minutes
	system time =       0.04 seconds =       0.00 minutes
	total time  =         19 seconds =       0.32 minutes
Total time:
	user time   =    6029.35 seconds =     100.49 minutes
	system time =      31.98 seconds =       0.53 minutes
	total time  =       6066 seconds =     101.10 minutes

         ----------------------------------------------------------
                                   FINDIF
                     R. A. King and Jonathon Misiewicz
         ---------------------------------------------------------

  Computing second-derivative from gradients using projected, 
  symmetry-adapted, cartesian coordinates.

  7 gradients passed in, including the reference geometry.
  Generating complete list of displacements from unique ones.


-------------------------------------------------------------


  ==> Harmonic Vibrational Analysis <==

  non-mass-weighted Hessian:       Symmetric? True   Hermitian? True   Lin Dep Dim?  6 (0)
  projection of translations (True) and rotations (True) removed 6 degrees of freedom (6)
  total projector:                 Symmetric? True   Hermitian? True   Lin Dep Dim?  6 (6)
  mass-weighted Hessian:           Symmetric? True   Hermitian? True   Lin Dep Dim?  6 (0)
  pre-proj  low-frequency mode:    0.0000i [cm^-1]
  pre-proj  low-frequency mode:    0.0000i [cm^-1]
  pre-proj  low-frequency mode:    0.0000i [cm^-1]
  pre-proj  low-frequency mode:    0.0000i [cm^-1]
  pre-proj  low-frequency mode:    0.0000  [cm^-1]
  pre-proj  low-frequency mode:    0.0000  [cm^-1]
  pre-proj  all modes:['0.0000i' '0.0000i' '0.0000i' '0.0000i' '0.0000' '0.0000' '167.8175'
 '559.2876' '611.6966']
  projected mass-weighted Hessian: Symmetric? True   Hermitian? True   Lin Dep Dim?  6 (6)
  post-proj low-frequency mode:    0.0000i [cm^-1] (TR)
  post-proj low-frequency mode:    0.0000i [cm^-1] (TR)
  post-proj low-frequency mode:    0.0000i [cm^-1] (TR)
  post-proj low-frequency mode:    0.0000  [cm^-1] (TR)
  post-proj low-frequency mode:    0.0000  [cm^-1] (TR)
  post-proj low-frequency mode:    0.0000  [cm^-1] (TR)
  post-proj  all modes:['0.0000i' '0.0000i' '0.0000i' '0.0000' '0.0000' '0.0000' '167.8175'
 '559.2876' '611.6966']

  Vibration                       7                   8                   9           
  Freq [cm^-1]                 167.8175            559.2876            611.6966       
  Irrep                           Ap                  Ap                  Ap          
  Reduced mass [u]             31.9721             31.9721             31.9721        
  Force const [mDyne/A]         0.5305              5.8924              7.0484        
  Turning point v=0 [a0]        0.1498              0.0821              0.0785        
  RMS dev v=0 [a0 u^1/2]        0.5989              0.3281              0.3137        
  Char temp [K]                241.4520            804.6904            880.0952       
  ----------------------------------------------------------------------------------
      1   S               -0.35 -0.26  0.00    0.56  0.41 -0.00   -0.45  0.61 -0.00   
      2   S                0.53 -0.35 -0.00   -0.06 -0.51 -0.00   -0.00 -0.47 -0.00   
      3   S               -0.18  0.61  0.00   -0.50  0.10  0.00    0.45 -0.14  0.00   

  ==> Thermochemistry Components <==

  Entropy, S
    Electronic S            2.183 [cal/(mol K)]        9.134 [J/(mol K)]       0.00347910 [mEh/K] (multiplicity = 3)
    Translational S        39.594 [cal/(mol K)]      165.660 [J/(mol K)]       0.06309659 [mEh/K] (mol. weight = 95.9162 [u], P = 101325.00 [Pa])
    Rotational S           25.350 [cal/(mol K)]      106.064 [J/(mol K)]       0.04039779 [mEh/K] (symmetry no. = 1)
    Vibrational S           3.415 [cal/(mol K)]       14.288 [J/(mol K)]       0.00544217 [mEh/K]
  Total S                  70.542 [cal/(mol K)]      295.147 [J/(mol K)]       0.11241564 [mEh/K]
  Correction S              0.000 [cal/(mol K)]        0.000 [J/(mol K)]       0.00000000 [mEh/K]

  Constant volume heat capacity, Cv
    Electronic Cv           0.000 [cal/(mol K)]        0.000 [J/(mol K)]       0.00000000 [mEh/K]
    Translational Cv        2.981 [cal/(mol K)]       12.472 [J/(mol K)]       0.00475022 [mEh/K]
    Rotational Cv           2.981 [cal/(mol K)]       12.472 [J/(mol K)]       0.00475022 [mEh/K]
    Vibrational Cv          4.009 [cal/(mol K)]       16.772 [J/(mol K)]       0.00638804 [mEh/K]
  Total Cv                  9.970 [cal/(mol K)]       41.715 [J/(mol K)]       0.01588847 [mEh/K]
  Correction Cv             0.000 [cal/(mol K)]        0.000 [J/(mol K)]       0.00000000 [mEh/K]

  Constant pressure heat capacity, Cp
    Electronic Cp           0.000 [cal/(mol K)]        0.000 [J/(mol K)]       0.00000000 [mEh/K]
    Translational Cp        4.968 [cal/(mol K)]       20.786 [J/(mol K)]       0.00791703 [mEh/K]
    Rotational Cp           2.981 [cal/(mol K)]       12.472 [J/(mol K)]       0.00475022 [mEh/K]
    Vibrational Cp          4.009 [cal/(mol K)]       16.772 [J/(mol K)]       0.00638804 [mEh/K]
  Total Cp                 11.957 [cal/(mol K)]       50.030 [J/(mol K)]       0.01905528 [mEh/K]
  Correction Cp             0.000 [cal/(mol K)]        0.000 [J/(mol K)]       0.00000000 [mEh/K]

  ==> Thermochemistry Energy Analysis <==

  Raw electronic energy, E0
  Total E0, Electronic energy at well bottom at 0 [K]                -1194.55732224 [Eh]

  Zero-point energy, ZPE_vib = Sum_i nu_i / 2
    Electronic ZPE          0.000 [kcal/mol]        0.000 [kJ/mol]       0.00000000 [Eh]
    Translational ZPE       0.000 [kcal/mol]        0.000 [kJ/mol]       0.00000000 [Eh]
    Rotational ZPE          0.000 [kcal/mol]        0.000 [kJ/mol]       0.00000000 [Eh]
    Vibrational ZPE         1.914 [kcal/mol]        8.008 [kJ/mol]       0.00305001 [Eh]         669.401 [cm^-1]
  Correction ZPE            1.914 [kcal/mol]        8.008 [kJ/mol]       0.00305001 [Eh]         669.401 [cm^-1]
  Total ZPE, Electronic energy at 0 [K]                              -1194.55427222 [Eh]

  Thermal Energy, E (includes ZPE)
    Electronic E            0.000 [kcal/mol]        0.000 [kJ/mol]       0.00000000 [Eh]
    Translational E         0.889 [kcal/mol]        3.718 [kJ/mol]       0.00141628 [Eh]
    Rotational E            0.889 [kcal/mol]        3.718 [kJ/mol]       0.00141628 [Eh]
    Vibrational E           2.510 [kcal/mol]       10.503 [kJ/mol]       0.00400037 [Eh]
  Correction E              4.288 [kcal/mol]       17.940 [kJ/mol]       0.00683292 [Eh]
  Total E, Electronic energy at  298.15 [K]                          -1194.55048932 [Eh]

  Enthalpy, H_trans = E_trans + k_B * T
    Electronic H            0.000 [kcal/mol]        0.000 [kJ/mol]       0.00000000 [Eh]
    Translational H         1.481 [kcal/mol]        6.197 [kJ/mol]       0.00236046 [Eh]
    Rotational H            0.889 [kcal/mol]        3.718 [kJ/mol]       0.00141628 [Eh]
    Vibrational H           2.510 [kcal/mol]       10.503 [kJ/mol]       0.00400037 [Eh]
  Correction H              4.880 [kcal/mol]       20.419 [kJ/mol]       0.00777711 [Eh]
  Total H, Enthalpy at  298.15 [K]                                   -1194.54954513 [Eh]

  Gibbs free energy, G = H - T * S
    Electronic G           -0.651 [kcal/mol]       -2.723 [kJ/mol]      -0.00103729 [Eh]
    Translational G       -10.324 [kcal/mol]      -43.194 [kJ/mol]      -0.01645179 [Eh]
    Rotational G           -6.669 [kcal/mol]      -27.905 [kJ/mol]      -0.01062833 [Eh]
    Vibrational G           1.492 [kcal/mol]        6.243 [kJ/mol]       0.00237779 [Eh]
  Correction G            -16.152 [kcal/mol]      -67.579 [kJ/mol]      -0.02573962 [Eh]
  Total G, Free enthalpy at  298.15 [K]                              -1194.58306186 [Eh]

    Psi4 stopped on: Wednesday, 03 February 2021 01:47PM
    Psi4 wall time for execution: 1:41:05.79

*** Psi4 exiting successfully. Buy a developer a beer!
