
    -----------------------------------------------------------------------
          Psi4: An Open-Source Ab Initio Electronic Structure Package
                               Psi4 1.4a2.dev191 

                         Git: Rev {master} 0ab5346 


    R. M. Parrish, L. A. Burns, D. G. A. Smith, A. C. Simmonett,
    A. E. DePrince III, E. G. Hohenstein, U. Bozkaya, A. Yu. Sokolov,
    R. Di Remigio, R. M. Richard, J. F. Gonthier, A. M. James,
    H. R. McAlexander, A. Kumar, M. Saitow, X. Wang, B. P. Pritchard,
    P. Verma, H. F. Schaefer III, K. Patkowski, R. A. King, E. F. Valeev,
    F. A. Evangelista, J. M. Turney, T. D. Crawford, and C. D. Sherrill,
    J. Chem. Theory Comput. 13(7) pp 3185--3197 (2017).
    (doi: 10.1021/acs.jctc.7b00174)


                         Additional Contributions by
    P. Kraus, H. Kruse, M. H. Lechner, M. C. Schieber, R. A. Shaw,
    A. Alenaizan, R. Galvelis, Z. L. Glick, S. Lehtola, and J. P. Misiewicz

    -----------------------------------------------------------------------


    Psi4 started on: Tuesday, 02 February 2021 02:39PM

    Process ID: 108098
    Host:       c2-18.compute.lan
    PSIDATADIR: /apps/gb/PSI4/1.4.0/share/psi4
    Memory:     500.0 MiB
    Threads:    1
    
  ==> Input File <==

--------------------------------------------------------------------------
memory 10 GB

molecule  {
-1 2
S
S 1 r1
S 1 r2 2 a1
r1 = 2.0
r2 = 2.1
a1 = 120.0
}

set {
reference uks
basis aug-cc-pvtz
g_convergence gau_verytight
dft_spherical_points 590
dft_radial_points 99
}

optimize('wb97x-d')
frequencies('wb97x-d')

--------------------------------------------------------------------------

  Memory set to   9.313 GiB by Python driver.
gradient() will perform analytic gradient computation.

*** tstart() called on c2-18.compute.lan
*** at Tue Feb  2 14:39:46 2021

   => Loading Basis Set <=

    Name: AUG-CC-PVTZ
    Role: ORBITAL
    Keyword: BASIS
    atoms 1-3 entry S          line   906 file /apps/gb/PSI4/1.4.0/share/psi4/basis/aug-cc-pvtz.gbs 

   => WB97X-D: Empirical Dispersion <=

    Chai and Head-Gordon Dispersion Correction
    Chai, J.-D.; Head-Gordon, M. (2010), J. Chem. Phys., 132: 6615-6620

        s6 =       1.000000


         ---------------------------------------------------------
                                   SCF
               by Justin Turney, Rob Parrish, Andy Simmonett
                          and Daniel G. A. Smith
                              UKS Reference
                        1 Threads,   9536 MiB Core
         ---------------------------------------------------------

  ==> Geometry <==

    Molecular point group: cs
    Full point group: Cs

    Geometry (in Angstrom), charge = -1, multiplicity = 2:

       Center              X                  Y                   Z               Mass       
    ------------   -----------------  -----------------  -----------------  -----------------
         S            0.606217782649     0.316666666667     0.000000000000    31.972071174400
         S            0.606217782649    -1.683333333333     0.000000000000    31.972071174400
         S           -1.212435565298     1.366666666667     0.000000000000    31.972071174400

  Running in cs symmetry.

  Rotational constants: A =      0.75413  B =      0.08359  C =      0.07525 [cm^-1]
  Rotational constants: A =  22608.14975  B =   2506.04720  C =   2255.97858 [MHz]
  Nuclear repulsion =  170.392939668640480

  Charge       = -1
  Multiplicity = 2
  Electrons    = 49
  Nalpha       = 25
  Nbeta        = 24

  ==> Algorithm <==

  SCF Algorithm Type is DF.
  DIIS enabled.
  MOM disabled.
  Fractional occupation disabled.
  Guess Type is SAD.
  Energy threshold   = 1.00e-08
  Density threshold  = 1.00e-08
  Integral threshold = 0.00e+00

  ==> Primary Basis <==

  Basis Set: AUG-CC-PVTZ
    Blend: AUG-CC-PVTZ
    Number of shells: 48
    Number of basis function: 150
    Number of Cartesian functions: 177
    Spherical Harmonics?: true
    Max angular momentum: 3

  ==> DFT Potential <==

   => Composite Functional: WB97X-D <= 

    wB97X-D Hyb-GGA Exchange-Correlation Functional

    J.-D. Chai and M. Head-Gordon, Phys. Chem. Chem. Phys. 10, 6615 (2008)

    Deriv               =              1
    GGA                 =           TRUE
    Meta                =          FALSE

    Exchange Hybrid     =           TRUE
    MP2 Hybrid          =          FALSE

   => Exchange-Correlation Functionals <=

    1.0000   wB97D range-separated functional

   => Exact (HF) Exchange <=

    0.7780            HF,LR [omega = 0.2000]
    0.2220               HF 

   => Molecular Quadrature <=

    Radial Scheme          =       TREUTLER
    Pruning Scheme         =           NONE
    Nuclear Scheme         =       TREUTLER

    BS radius alpha        =              1
    Pruning alpha          =              1
    Radial Points          =             99
    Spherical Points       =            590
    Total Points           =         169927
    Total Blocks           =           1392
    Max Points             =            256
    Max Functions          =            150
    Weights Tolerance      =       1.00E-15

   => Loading Basis Set <=

    Name: (AUG-CC-PVTZ AUX)
    Role: JKFIT
    Keyword: DF_BASIS_SCF
    atoms 1-3 entry S          line   730 file /apps/gb/PSI4/1.4.0/share/psi4/basis/aug-cc-pvtz-jkfit.gbs 

  ==> Pre-Iterations <==

   -------------------------------------------------------
    Irrep   Nso     Nmo     Nalpha   Nbeta   Ndocc  Nsocc
   -------------------------------------------------------
     A'        99      99       0       0       0       0
     A"        51      51       0       0       0       0
   -------------------------------------------------------
    Total     150     150      25      24      24       1
   -------------------------------------------------------

  ==> Integral Setup <==

  ==> DiskDFJK: Density-Fitted J/K Matrices <==

    J tasked:                  Yes
    K tasked:                  Yes
    wK tasked:                 Yes
    Omega:               2.000E-01
    OpenMP threads:              1
    Integrals threads:           1
    Memory [MiB]:             6486
    Algorithm:                Core
    Integral Cache:           NONE
    Schwarz Cutoff:          1E-12
    Fitting Condition:       1E-10

   => Auxiliary Basis Set <=

  Basis Set: (AUG-CC-PVTZ AUX)
    Blend: AUG-CC-PVTZ-JKFIT
    Number of shells: 126
    Number of basis function: 438
    Number of Cartesian functions: 540
    Spherical Harmonics?: true
    Max angular momentum: 4

  Cached 100.0% of DFT collocation blocks in 0.650 [GiB].

  Minimum eigenvalue in the overlap matrix is 2.2915518432E-04.
  Using Symmetric Orthogonalization.

  SCF Guess: Superposition of Atomic Densities via on-the-fly atomic UHF.

  ==> Iterations <==

                           Total Energy        Delta E     RMS |[F,P]|

   @DF-UKS iter SAD: -1194.07218588701244   -1.19407e+03   0.00000e+00 
   @DF-UKS iter   1: -1194.58846568412673   -5.16280e-01   4.00738e-03 DIIS
   @DF-UKS iter   2: -1194.63778452105134   -4.93188e-02   2.90455e-03 DIIS
   @DF-UKS iter   3: -1194.68198180830518   -4.41973e-02   7.69511e-04 DIIS
   @DF-UKS iter   4: -1194.68592380447149   -3.94200e-03   1.28111e-04 DIIS
   @DF-UKS iter   5: -1194.68612512672235   -2.01322e-04   5.51109e-05 DIIS
   @DF-UKS iter   6: -1194.68616225067990   -3.71240e-05   2.22230e-05 DIIS
   @DF-UKS iter   7: -1194.68616890118278   -6.65050e-06   1.09891e-05 DIIS
   @DF-UKS iter   8: -1194.68617106674878   -2.16557e-06   3.93828e-06 DIIS
   @DF-UKS iter   9: -1194.68617201530606   -9.48557e-07   2.44100e-06 DIIS
   @DF-UKS iter  10: -1194.68617240202116   -3.86715e-07   1.44640e-06 DIIS
   @DF-UKS iter  11: -1194.68617261693134   -2.14910e-07   7.68232e-07 DIIS
   @DF-UKS iter  12: -1194.68617267998934   -6.30580e-08   3.25448e-07 DIIS
   @DF-UKS iter  13: -1194.68617269043057   -1.04412e-08   1.35054e-07 DIIS
   @DF-UKS iter  14: -1194.68617269155675   -1.12618e-09   5.60846e-08 DIIS
   @DF-UKS iter  15: -1194.68617269170363   -1.46883e-10   1.99855e-08 DIIS
   @DF-UKS iter  16: -1194.68617269172682   -2.31921e-11   6.32027e-09 DIIS
  Energy and wave function converged.


  ==> Post-Iterations <==

   @Spin Contamination Metric:   6.499613096E-03
   @S^2 Expected:                7.500000000E-01
   @S^2 Observed:                7.564996131E-01
   @S   Expected:                5.000000000E-01
   @S   Observed:                5.000000000E-01

    Orbital Energies [Eh]
    ---------------------

    Alpha Occupied:                                                       

       1Ap   -88.949681     2Ap   -88.868131     3Ap   -88.859370  
       4Ap    -7.950316     5Ap    -7.876346     6Ap    -7.866125  
       7Ap    -5.898814     1App   -5.897471     8Ap    -5.894617  
       9Ap    -5.826374     2App   -5.822747    10Ap    -5.817745  
      11Ap    -5.816833     3App   -5.811865    12Ap    -5.807541  
      13Ap    -0.733584    14Ap    -0.605455    15Ap    -0.490419  
      16Ap    -0.293196     4App   -0.270741    17Ap    -0.266957  
       5App   -0.166702    18Ap    -0.142428    19Ap    -0.137306  
       6App   -0.102611  

    Alpha Virtual:                                                        

      20Ap     0.166773    21Ap     0.170667    22Ap     0.202764  
      23Ap     0.211248     7App    0.223399    24Ap     0.232418  
       8App    0.239157    25Ap     0.242729     9App    0.246622  
      26Ap     0.251309    27Ap     0.263888    28Ap     0.269817  
      29Ap     0.337036    30Ap     0.350099    10App    0.364120  
      31Ap     0.384332    11App    0.387429    32Ap     0.426601  
      33Ap     0.442937    34Ap     0.447300    12App    0.458884  
      13App    0.461088    35Ap     0.466818    14App    0.507683  
      36Ap     0.513306    37Ap     0.523401    38Ap     0.540200  
      15App    0.557364    39Ap     0.581845    16App    0.627456  
      40Ap     0.655458    17App    0.702698    41Ap     0.719224  
      42Ap     0.726703    43Ap     0.733452    18App    0.742410  
      19App    0.746686    44Ap     0.747802    45Ap     0.751817  
      20App    0.761328    46Ap     0.769865    47Ap     0.804577  
      21App    0.817043    48Ap     0.818538    49Ap     0.826833  
      22App    0.835961    50Ap     0.842716    51Ap     0.855851  
      23App    0.874756    52Ap     0.877691    53Ap     0.921346  
      24App    0.921566    25App    0.936592    54Ap     0.979326  
      26App    0.983326    55Ap     0.985346    27App    0.999106  
      56Ap     1.023575    57Ap     1.042752    58Ap     1.048899  
      59Ap     1.128376    28App    1.136283    29App    1.174417  
      60Ap     1.202089    30App    1.235597    61Ap     1.243718  
      31App    1.312753    62Ap     1.317609    63Ap     1.328860  
      64Ap     1.361235    65Ap     1.383583    32App    1.402367  
      33App    1.412536    66Ap     1.512856    67Ap     1.523233  
      68Ap     1.594300    69Ap     1.699792    70Ap     1.990335  
      34App    2.002335    35App    2.029319    71Ap     2.039137  
      36App    2.065617    72Ap     2.070719    73Ap     2.081739  
      37App    2.081995    74Ap     2.113252    38App    2.147967  
      75Ap     2.162476    76Ap     2.188168    77Ap     2.197034  
      39App    2.204782    78Ap     2.211873    40App    2.214475  
      41App    2.235114    79Ap     2.238040    42App    2.260282  
      80Ap     2.270121    43App    2.283257    81Ap     2.323542  
      82Ap     2.344273    44App    2.362520    83Ap     2.366939  
      45App    2.376769    84Ap     2.383971    46App    2.449063  
      47App    2.457110    85Ap     2.459744    86Ap     2.471697  
      87Ap     2.490779    48App    2.493041    49App    2.537748  
      88Ap     2.577812    89Ap     2.593989    90Ap     2.648412  
      91Ap     2.663569    92Ap     2.698666    50App    2.737043  
      93Ap     2.747757    51App    2.801569    94Ap     2.914197  
      95Ap     3.793040    96Ap     3.895428    97Ap     4.948607  
      98Ap     5.361451    99Ap     5.817351  

    Beta Occupied:                                                        

       1Ap   -88.946894     2Ap   -88.866357     3Ap   -88.857889  
       4Ap    -7.947481     5Ap    -7.874482     6Ap    -7.864566  
       7Ap    -5.896936     8Ap    -5.892810     1App   -5.887997  
       9Ap    -5.825320    10Ap    -5.816463     2App   -5.816419  
      11Ap    -5.816019     3App   -5.806504    12Ap    -5.806473  
      13Ap    -0.720710    14Ap    -0.594984    15Ap    -0.467824  
      16Ap    -0.285215    17Ap    -0.260902     4App   -0.234578  
      18Ap    -0.137711    19Ap    -0.132361     5App   -0.123729  

    Beta Virtual:                                                         

       6App    0.109223    20Ap     0.169857    21Ap     0.172164  
      22Ap     0.204802    23Ap     0.213583     7App    0.226250  
      24Ap     0.233012     8App    0.240939    25Ap     0.244790  
       9App    0.250610    26Ap     0.252671    27Ap     0.263923  
      28Ap     0.273968    29Ap     0.338027    30Ap     0.350125  
      10App    0.367846    31Ap     0.385166    11App    0.394436  
      32Ap     0.427345    33Ap     0.445625    34Ap     0.449780  
      12App    0.465179    13App    0.466972    35Ap     0.471342  
      14App    0.512772    36Ap     0.515208    37Ap     0.523666  
      38Ap     0.541567    15App    0.561811    39Ap     0.584147  
      16App    0.634152    40Ap     0.657291    17App    0.706318  
      41Ap     0.719879    42Ap     0.728984    43Ap     0.734761  
      44Ap     0.749715    18App    0.751913    19App    0.754385  
      45Ap     0.755992    20App    0.767215    46Ap     0.771166  
      47Ap     0.807798    48Ap     0.821742    21App    0.825783  
      49Ap     0.834215    22App    0.843395    50Ap     0.850261  
      51Ap     0.863175    52Ap     0.882244    23App    0.884436  
      53Ap     0.927737    24App    0.928742    25App    0.949476  
      54Ap     0.981453    26App    0.985293    55Ap     0.987411  
      27App    1.002614    56Ap     1.029035    57Ap     1.046875  
      58Ap     1.052288    59Ap     1.129901    28App    1.138840  
      29App    1.179236    60Ap     1.205830    30App    1.239604  
      61Ap     1.246183    31App    1.316765    62Ap     1.318841  
      63Ap     1.330438    64Ap     1.365133    65Ap     1.385903  
      32App    1.409557    33App    1.418746    66Ap     1.518869  
      67Ap     1.525056    68Ap     1.600570    69Ap     1.709633  
      70Ap     1.999849    34App    2.013710    35App    2.038206  
      71Ap     2.048188    36App    2.074279    72Ap     2.076694  
      73Ap     2.087426    37App    2.091207    74Ap     2.116158  
      38App    2.162361    75Ap     2.163533    76Ap     2.191439  
      77Ap     2.203014    78Ap     2.218061    39App    2.218640  
      40App    2.229111    79Ap     2.243972    41App    2.244847  
      42App    2.273748    80Ap     2.277056    43App    2.300341  
      81Ap     2.328271    82Ap     2.349029    44App    2.374178  
      83Ap     2.377460    45App    2.387372    84Ap     2.392734  
      46App    2.455872    85Ap     2.467465    47App    2.470326  
      86Ap     2.477579    87Ap     2.496557    48App    2.506159  
      49App    2.550931    88Ap     2.586677    89Ap     2.600036  
      90Ap     2.652778    91Ap     2.666317    92Ap     2.702582  
      50App    2.748820    93Ap     2.752710    51App    2.815483  
      94Ap     2.916617    95Ap     3.796466    96Ap     3.899001  
      97Ap     4.955156    98Ap     5.365979    99Ap     5.823016  

    Final Occupation by Irrep:
             Ap   App 
    DOCC [    19,    5 ]
    SOCC [     0,    1 ]

  @DF-UKS Final Energy: -1194.68617269172682

   => Energetics <=

    Nuclear Repulsion Energy =            170.3929396686404800
    One-Electron Energy =               -1999.3454888340006619
    Two-Electron Energy =                 690.6025905060129162
    DFT Exchange-Correlation Energy =     -56.3359344725072049
    Empirical Dispersion Energy =          -0.0002795598724586
    VV10 Nonlocal Energy =                  0.0000000000000000
    Total Energy =                      -1194.6861726917268243

  UHF NO Occupations:
  HONO-2 :    4App 1.9991421
  HONO-1 :    5App 1.9984214
  HONO-0 :    6App 1.0000000
  LUNO+0 :    7App 0.0015786
  LUNO+1 :    8App 0.0008579
  LUNO+2 :   20 Ap 0.0004054
  LUNO+3 :   21 Ap 0.0001772


Computation Completed


Properties will be evaluated at   0.000000,   0.000000,   0.000000 [a0]

Properties computed using the SCF density matrix

  Nuclear Dipole Moment: [e a0]
     X:     0.0000      Y:    -0.0000      Z:     0.0000

  Electronic Dipole Moment: [e a0]
     X:     0.4992      Y:     0.0163      Z:     0.0000

  Dipole Moment: [e a0]
     X:     0.4992      Y:     0.0163      Z:     0.0000     Total:     0.4995

  Dipole Moment: [D]
     X:     1.2689      Y:     0.0415      Z:     0.0000     Total:     1.2696


*** tstop() called on c2-18.compute.lan at Tue Feb  2 14:44:33 2021
Module time:
	user time   =      99.32 seconds =       1.66 minutes
	system time =      58.14 seconds =       0.97 minutes
	total time  =        287 seconds =       4.78 minutes
Total time:
	user time   =      99.32 seconds =       1.66 minutes
	system time =      58.14 seconds =       0.97 minutes
	total time  =        287 seconds =       4.78 minutes

*** tstart() called on c2-18.compute.lan
*** at Tue Feb  2 14:44:34 2021


         ------------------------------------------------------------
                                   SCF GRAD                          
                          Rob Parrish, Justin Turney,                
                       Andy Simmonett, and Alex Sokolov              
         ------------------------------------------------------------

  ==> Geometry <==

    Molecular point group: cs
    Full point group: Cs

    Geometry (in Angstrom), charge = -1, multiplicity = 2:

       Center              X                  Y                   Z               Mass       
    ------------   -----------------  -----------------  -----------------  -----------------
         S            0.606217782649     0.316666666667     0.000000000000    31.972071174400
         S            0.606217782649    -1.683333333333     0.000000000000    31.972071174400
         S           -1.212435565298     1.366666666667     0.000000000000    31.972071174400

  Nuclear repulsion =  170.392939668640480

  ==> Basis Set <==

  Basis Set: AUG-CC-PVTZ
    Blend: AUG-CC-PVTZ
    Number of shells: 48
    Number of basis function: 150
    Number of Cartesian functions: 177
    Spherical Harmonics?: true
    Max angular momentum: 3

  ==> DFJKGrad: Density-Fitted SCF Gradients <==

    Gradient:                    1
    J tasked:                  Yes
    K tasked:                  Yes
    wK tasked:                 Yes
    Omega:               2.000E-01
    OpenMP threads:              1
    Integrals threads:           1
    Memory [MiB]:             7152
    Schwarz Cutoff:          0E+00
    Fitting Condition:       1E-10

   => Auxiliary Basis Set <=

  Basis Set: (AUG-CC-PVTZ AUX)
    Blend: AUG-CC-PVTZ-JKFIT
    Number of shells: 126
    Number of basis function: 438
    Number of Cartesian functions: 540
    Spherical Harmonics?: true
    Max angular momentum: 4

  ==> DFT Potential <==

   => Composite Functional: WB97X-D <= 

    wB97X-D Hyb-GGA Exchange-Correlation Functional

    J.-D. Chai and M. Head-Gordon, Phys. Chem. Chem. Phys. 10, 6615 (2008)

    Deriv               =              1
    GGA                 =           TRUE
    Meta                =          FALSE

    Exchange Hybrid     =           TRUE
    MP2 Hybrid          =          FALSE

   => Exchange-Correlation Functionals <=

    1.0000   wB97D range-separated functional

   => Exact (HF) Exchange <=

    0.7780            HF,LR [omega = 0.2000]
    0.2220               HF 

   => Molecular Quadrature <=

    Radial Scheme          =       TREUTLER
    Pruning Scheme         =           NONE
    Nuclear Scheme         =       TREUTLER

    BS radius alpha        =              1
    Pruning alpha          =              1
    Radial Points          =             99
    Spherical Points       =            590
    Total Points           =         169927
    Total Blocks           =           1392
    Max Points             =            256
    Max Functions          =            150
    Weights Tolerance      =       1.00E-15


  -Total Gradient:
     Atom            X                  Y                   Z
    ------   -----------------  -----------------  -----------------
       1        0.017822731063    -0.013736583875     0.000000000000
       2        0.005816099705    -0.006276160004     0.000000000000
       3       -0.023622246335     0.020026774554     0.000000000000


*** tstop() called on c2-18.compute.lan at Tue Feb  2 14:45:01 2021
Module time:
	user time   =      18.94 seconds =       0.32 minutes
	system time =       0.19 seconds =       0.00 minutes
	total time  =         27 seconds =       0.45 minutes
Total time:
	user time   =     118.26 seconds =       1.97 minutes
	system time =      58.33 seconds =       0.97 minutes
	total time  =        315 seconds =       5.25 minutes

			-----------------------------------------
			 OPTKING 2.0: for geometry optimizations 
			  - R.A. King,  Bethel University        
			-----------------------------------------

	Internal coordinates to be generated automatically.
	Detected frag 1 with atoms:  1 2 3
	---Fragment 1 Bond Connectivity---
	 1 : 2 3
	 2 : 1
	 3 : 1

	---Fragment 1 Geometry and Gradient---
	 S           1.1455855816        0.5984132731        0.0000000000
	 S           1.1455855816       -3.1810389779        0.0000000000
	 S          -2.2911711632        2.5826257048        0.0000000000
	             0.0178227311       -0.0137365839        0.0000000000
	             0.0058160997       -0.0062761600        0.0000000000
	            -0.0236222463        0.0200267746        0.0000000000

	Previous optimization step data not found.  Starting new optimization.

	---Fragment 1 Intrafragment Coordinates---
	 - Coordinate -           - BOHR/RAD -       - ANG/DEG -
	 R(1,2)           =         3.779452	       2.000000
	 R(1,3)           =         3.968425	       2.100000
	 B(2,1,3)         =         2.094395	     120.000000

	Current energy   :     -1194.6861726917

	Generating empirical Hessian (Schlegel '84) for each fragment.
	Taking RFO optimization step.
	Going to follow RFO solution 1.
	Using RFO vector 1.
	Norm of target step-size    0.14702
	Projected energy change by RFO approximation:         0.0013410913

	Back-transformation to cartesian coordinates...
	Successfully converged to displaced geometry.

	--- Internal Coordinate Step in ANG or DEG, aJ/ANG or AJ/DEG ---
	 ---------------------------------------------------------------------------
	   Coordinate                Previous        Force       Change         New 
	   ----------                --------       ------       ------       ------
	    1 R(1,2)          =      2.000000    -0.051758    -0.009458     1.990542
	    2 R(1,3)          =      2.100000    -0.251049    -0.062445     2.037555
	    3 B(2,1,3)        =    120.000000    -0.001670    -4.919447   115.080553
	 ---------------------------------------------------------------------------
	Successfully symmetrized geometry.

  ==> Convergence Check <==

  Measures of convergence in internal coordinates in au.
  Criteria marked as inactive (o), active & met (*), and active & unmet ( ).
  --------------------------------------------------------------------------------------------- ~
   Step     Total Energy     Delta E     MAX Force     RMS Force      MAX Disp      RMS Disp    ~
  --------------------------------------------------------------------------------------------- ~
    Convergence Criteria             o    2.00e-06 *    1.00e-06 *    6.00e-06 *    4.00e-06 *  ~
  --------------------------------------------------------------------------------------------- ~
      1   -1194.68617269   -1.19e+03 o    3.05e-02      2.20e-02      1.18e-01      8.49e-02    ~
  ---------------------------------------------------------------------------------------------

	Writing optimization data to binary file.
	Structure for next step:
	Cartesian Geometry (in Angstrom)
	    S     0.6295394134   0.3509565071   0.0000000000
	    S     0.5507079972  -1.6380238617   0.0000000000
	    S    -1.1802474105   1.2870673546   0.0000000000
			--------------------------
			 OPTKING Finished Execution 
			--------------------------

    Structure for next step:
    Molecular point group: cs
    Full point group: Cs

    Geometry (in Angstrom), charge = -1, multiplicity = 2:

    S       
    S             1          r1
    S             1          r2      2          a1

    a1        =  115.0805529865
    r1        =    1.9905419692
    r2        =    2.0375553733

gradient() will perform analytic gradient computation.

*** tstart() called on c2-18.compute.lan
*** at Tue Feb  2 14:45:01 2021

   => Loading Basis Set <=

    Name: AUG-CC-PVTZ
    Role: ORBITAL
    Keyword: BASIS
    atoms 1-3 entry S          line   906 file /apps/gb/PSI4/1.4.0/share/psi4/basis/aug-cc-pvtz.gbs 

   => WB97X-D: Empirical Dispersion <=

    Chai and Head-Gordon Dispersion Correction
    Chai, J.-D.; Head-Gordon, M. (2010), J. Chem. Phys., 132: 6615-6620

        s6 =       1.000000


         ---------------------------------------------------------
                                   SCF
               by Justin Turney, Rob Parrish, Andy Simmonett
                          and Daniel G. A. Smith
                              UKS Reference
                        1 Threads,   9536 MiB Core
         ---------------------------------------------------------

  ==> Geometry <==

    Molecular point group: cs
    Full point group: Cs

    Geometry (in Angstrom), charge = -1, multiplicity = 2:

       Center              X                  Y                   Z               Mass       
    ------------   -----------------  -----------------  -----------------  -----------------
         S            0.615146610690     0.375612825041     0.000000000000    31.972071174400
         S            0.615146610690    -1.614929144146     0.000000000000    31.972071174400
         S           -1.230293221380     1.239316319105     0.000000000000    31.972071174400

  Running in cs symmetry.

  Rotational constants: A =      0.67716  B =      0.09127  C =      0.08043 [cm^-1]
  Rotational constants: A =  20300.70424  B =   2736.28008  C =   2411.27102 [MHz]
  Nuclear repulsion =  174.399843666568785

  Charge       = -1
  Multiplicity = 2
  Electrons    = 49
  Nalpha       = 25
  Nbeta        = 24

  ==> Algorithm <==

  SCF Algorithm Type is DF.
  DIIS enabled.
  MOM disabled.
  Fractional occupation disabled.
  Guess Type is READ.
  Energy threshold   = 1.00e-08
  Density threshold  = 1.00e-08
  Integral threshold = 0.00e+00

  ==> Primary Basis <==

  Basis Set: AUG-CC-PVTZ
    Blend: AUG-CC-PVTZ
    Number of shells: 48
    Number of basis function: 150
    Number of Cartesian functions: 177
    Spherical Harmonics?: true
    Max angular momentum: 3

  ==> DFT Potential <==

   => Composite Functional: WB97X-D <= 

    wB97X-D Hyb-GGA Exchange-Correlation Functional

    J.-D. Chai and M. Head-Gordon, Phys. Chem. Chem. Phys. 10, 6615 (2008)

    Deriv               =              1
    GGA                 =           TRUE
    Meta                =          FALSE

    Exchange Hybrid     =           TRUE
    MP2 Hybrid          =          FALSE

   => Exchange-Correlation Functionals <=

    1.0000   wB97D range-separated functional

   => Exact (HF) Exchange <=

    0.7780            HF,LR [omega = 0.2000]
    0.2220               HF 

   => Molecular Quadrature <=

    Radial Scheme          =       TREUTLER
    Pruning Scheme         =           NONE
    Nuclear Scheme         =       TREUTLER

    BS radius alpha        =              1
    Pruning alpha          =              1
    Radial Points          =             99
    Spherical Points       =            590
    Total Points           =         169942
    Total Blocks           =           1394
    Max Points             =            256
    Max Functions          =            150
    Weights Tolerance      =       1.00E-15

   => Loading Basis Set <=

    Name: (AUG-CC-PVTZ AUX)
    Role: JKFIT
    Keyword: DF_BASIS_SCF
    atoms 1-3 entry S          line   730 file /apps/gb/PSI4/1.4.0/share/psi4/basis/aug-cc-pvtz-jkfit.gbs 

   => Loading Basis Set <=

    Name: AUG-CC-PVTZ
    Role: ORBITAL
    Keyword: BASIS
    atoms 1-3 entry S          line   906 file /apps/gb/PSI4/1.4.0/share/psi4/basis/aug-cc-pvtz.gbs 

  Reading orbitals from file 180, no projection.

  ==> Pre-Iterations <==

   -------------------------------------------------------
    Irrep   Nso     Nmo     Nalpha   Nbeta   Ndocc  Nsocc
   -------------------------------------------------------
     A'        99      99       0       0       0       0
     A"        51      51       0       0       0       0
   -------------------------------------------------------
    Total     150     150      25      24      24       1
   -------------------------------------------------------

  ==> Integral Setup <==

  ==> DiskDFJK: Density-Fitted J/K Matrices <==

    J tasked:                  Yes
    K tasked:                  Yes
    wK tasked:                 Yes
    Omega:               2.000E-01
    OpenMP threads:              1
    Integrals threads:           1
    Memory [MiB]:             6484
    Algorithm:                Core
    Integral Cache:           NONE
    Schwarz Cutoff:          1E-12
    Fitting Condition:       1E-10

   => Auxiliary Basis Set <=

  Basis Set: (AUG-CC-PVTZ AUX)
    Blend: AUG-CC-PVTZ-JKFIT
    Number of shells: 126
    Number of basis function: 438
    Number of Cartesian functions: 540
    Spherical Harmonics?: true
    Max angular momentum: 4

  Cached 100.0% of DFT collocation blocks in 0.653 [GiB].

  Minimum eigenvalue in the overlap matrix is 2.2348445060E-04.
  Using Symmetric Orthogonalization.

  SCF Guess: Orbitals guess was supplied from a previous computation.

  ==> Iterations <==

                           Total Energy        Delta E     RMS |[F,P]|

   @DF-UKS iter   0: -1194.71021332698979   -1.19471e+03   2.16682e-03 
   @DF-UKS iter   1: -1194.68899759025840    2.12157e-02   2.73210e-04 DIIS
   @DF-UKS iter   2: -1194.68922387842349   -2.26288e-04   2.97840e-04 DIIS
   @DF-UKS iter   3: -1194.68988201387583   -6.58135e-04   4.29509e-05 DIIS
   @DF-UKS iter   4: -1194.68992135745953   -3.93436e-05   1.88207e-05 DIIS
   @DF-UKS iter   5: -1194.68993373804415   -1.23806e-05   6.89343e-06 DIIS
   @DF-UKS iter   6: -1194.68993521860421   -1.48056e-06   3.22723e-06 DIIS
   @DF-UKS iter   7: -1194.68993576808271   -5.49479e-07   2.63051e-06 DIIS
   @DF-UKS iter   8: -1194.68993601387410   -2.45791e-07   1.43722e-06 DIIS
   @DF-UKS iter   9: -1194.68993622816606   -2.14292e-07   9.52180e-07 DIIS
   @DF-UKS iter  10: -1194.68993630153864   -7.33726e-08   3.03564e-07 DIIS
   @DF-UKS iter  11: -1194.68993631041531   -8.87667e-09   8.63948e-08 DIIS
   @DF-UKS iter  12: -1194.68993631075955   -3.44244e-10   2.89778e-08 DIIS
   @DF-UKS iter  13: -1194.68993631079593   -3.63798e-11   8.98432e-09 DIIS
  Energy and wave function converged.


  ==> Post-Iterations <==

   @Spin Contamination Metric:   6.325370260E-03
   @S^2 Expected:                7.500000000E-01
   @S^2 Observed:                7.563253703E-01
   @S   Expected:                5.000000000E-01
   @S   Observed:                5.000000000E-01

    Orbital Energies [Eh]
    ---------------------

    Alpha Occupied:                                                       

       1Ap   -88.947045     2Ap   -88.860631     3Ap   -88.856589  
       4Ap    -7.948442     5Ap    -7.869306     6Ap    -7.864470  
       7Ap    -5.896890     1App   -5.895572     8Ap    -5.892728  
       9Ap    -5.819344     2App   -5.815547    10Ap    -5.814837  
      11Ap    -5.810693     3App   -5.810403    12Ap    -5.805878  
      13Ap    -0.740604    14Ap    -0.606990    15Ap    -0.485400  
      16Ap    -0.292722     4App   -0.273670    17Ap    -0.271657  
       5App   -0.164436    18Ap    -0.140635    19Ap    -0.135211  
       6App   -0.097789  

    Alpha Virtual:                                                        

      20Ap     0.171307    21Ap     0.171893    22Ap     0.205765  
      23Ap     0.216902     7App    0.224502    24Ap     0.232446  
       8App    0.239602     9App    0.244895    25Ap     0.247514  
      26Ap     0.249579    27Ap     0.264854    28Ap     0.272982  
      29Ap     0.337722    30Ap     0.351441    10App    0.367682  
      11App    0.388665    31Ap     0.393116    32Ap     0.431154  
      33Ap     0.443641    34Ap     0.445157    12App    0.457119  
      35Ap     0.460735    13App    0.470243    14App    0.507996  
      36Ap     0.520664    37Ap     0.522437    38Ap     0.548242  
      15App    0.555698    39Ap     0.581837    16App    0.628486  
      40Ap     0.662981    17App    0.706320    41Ap     0.715069  
      42Ap     0.731015    43Ap     0.736418    18App    0.742082  
      19App    0.743436    44Ap     0.746482    45Ap     0.747192  
      20App    0.754005    46Ap     0.770245    47Ap     0.793723  
      21App    0.817564    48Ap     0.825864    49Ap     0.829296  
      22App    0.840215    50Ap     0.849477    51Ap     0.863369  
      52Ap     0.881164    23App    0.889049    24App    0.931216  
      53Ap     0.935613    25App    0.938580    54Ap     0.989278  
      55Ap     0.991862    26App    0.994800    27App    0.997517  
      56Ap     1.024852    57Ap     1.057261    58Ap     1.069060  
      59Ap     1.151840    28App    1.169266    29App    1.183131  
      60Ap     1.215942    30App    1.236439    61Ap     1.243308  
      31App    1.319432    62Ap     1.335578    63Ap     1.339881  
      64Ap     1.363876    65Ap     1.400883    32App    1.402277  
      33App    1.409162    66Ap     1.508427    67Ap     1.520146  
      68Ap     1.608287    69Ap     1.695757    70Ap     1.992986  
      34App    2.006647    35App    2.030964    71Ap     2.044507  
      72Ap     2.072935    36App    2.073646    73Ap     2.082598  
      37App    2.084298    74Ap     2.100252    38App    2.146936  
      75Ap     2.149275    76Ap     2.188755    77Ap     2.201417  
      78Ap     2.204371    39App    2.205846    40App    2.211408  
      41App    2.227371    79Ap     2.235049    42App    2.266779  
      80Ap     2.270226    43App    2.281800    81Ap     2.334081  
      82Ap     2.343163    44App    2.366761    45App    2.382053  
      83Ap     2.385977    84Ap     2.396358    46App    2.455877  
      85Ap     2.474252    47App    2.479861    48App    2.499005  
      86Ap     2.505442    87Ap     2.514278    49App    2.549773  
      88Ap     2.591732    89Ap     2.627224    90Ap     2.660991  
      91Ap     2.678790    92Ap     2.759804    50App    2.780841  
      93Ap     2.806374    51App    2.810457    94Ap     2.915088  
      95Ap     3.852941    96Ap     3.911894    97Ap     4.951651  
      98Ap     5.422068    99Ap     5.821529  

    Beta Occupied:                                                        

       1Ap   -88.944289     2Ap   -88.858949     3Ap   -88.855044  
       4Ap    -7.945627     5Ap    -7.867530     6Ap    -7.862840  
       7Ap    -5.895026     8Ap    -5.890943     1App   -5.886177  
       9Ap    -5.818351    10Ap    -5.813956     2App   -5.809518  
      11Ap    -5.809473     3App   -5.804837    12Ap    -5.804760  
      13Ap    -0.728292    14Ap    -0.596839    15Ap    -0.462779  
      16Ap    -0.284707    17Ap    -0.265433     4App   -0.238415  
      18Ap    -0.134973    19Ap    -0.131161     5App   -0.122478  

    Beta Virtual:                                                         

       6App    0.114346    20Ap     0.173437    21Ap     0.173688  
      22Ap     0.206697    23Ap     0.220384     7App    0.227174  
      24Ap     0.233015     8App    0.241532    25Ap     0.249627  
       9App    0.249736    26Ap     0.252023    27Ap     0.264779  
      28Ap     0.277105    29Ap     0.338612    30Ap     0.351440  
      10App    0.371396    31Ap     0.394161    11App    0.395767  
      32Ap     0.431731    33Ap     0.446388    34Ap     0.447780  
      12App    0.464555    35Ap     0.465088    13App    0.474876  
      14App    0.512895    36Ap     0.521022    37Ap     0.524249  
      38Ap     0.549537    15App    0.559617    39Ap     0.583903  
      16App    0.634975    40Ap     0.664899    17App    0.709723  
      41Ap     0.715670    42Ap     0.733253    43Ap     0.738000  
      44Ap     0.747692    18App    0.751268    45Ap     0.751441  
      19App    0.751972    20App    0.759284    46Ap     0.771327  
      47Ap     0.796835    21App    0.826137    48Ap     0.831417  
      49Ap     0.835357    22App    0.847916    50Ap     0.854603  
      51Ap     0.871926    52Ap     0.886180    23App    0.899195  
      24App    0.937541    53Ap     0.940810    25App    0.951215  
      54Ap     0.991952    55Ap     0.994038    26App    0.996770  
      27App    1.001142    56Ap     1.031780    57Ap     1.060696  
      58Ap     1.071604    59Ap     1.152880    28App    1.171657  
      29App    1.188122    60Ap     1.219726    30App    1.240472  
      61Ap     1.245762    31App    1.323435    62Ap     1.337232  
      63Ap     1.341618    64Ap     1.367538    65Ap     1.403229  
      32App    1.408249    33App    1.416725    66Ap     1.509863  
      67Ap     1.526526    68Ap     1.614520    69Ap     1.705470  
      70Ap     2.002479    34App    2.017702    35App    2.039594  
      71Ap     2.052999    36App    2.082072    72Ap     2.082133  
      73Ap     2.085549    37App    2.093152    74Ap     2.102975  
      75Ap     2.150235    38App    2.161425    76Ap     2.192578  
      77Ap     2.207668    78Ap     2.210932    39App    2.219081  
      40App    2.226247    41App    2.236959    79Ap     2.239439  
      80Ap     2.277874    42App    2.281477    43App    2.297958  
      81Ap     2.339002    82Ap     2.349506    44App    2.378087  
      45App    2.392707    83Ap     2.394357    84Ap     2.404335  
      46App    2.463139    85Ap     2.482434    47App    2.492669  
      86Ap     2.510608    48App    2.512211    87Ap     2.519853  
      49App    2.562390    88Ap     2.602462    89Ap     2.630830  
      90Ap     2.666471    91Ap     2.682383    92Ap     2.764590  
      50App    2.793186    93Ap     2.809290    51App    2.823867  
      94Ap     2.917432    95Ap     3.856236    96Ap     3.915414  
      97Ap     4.957994    98Ap     5.426532    99Ap     5.827182  

    Final Occupation by Irrep:
             Ap   App 
    DOCC [    19,    5 ]
    SOCC [     0,    1 ]

  @DF-UKS Final Energy: -1194.68993631079593

   => Energetics <=

    Nuclear Repulsion Energy =            174.3998436665687848
    One-Electron Energy =               -2007.4577844237719546
    Two-Electron Energy =                 694.7240408758082140
    DFT Exchange-Correlation Energy =     -56.3557970180567978
    Empirical Dispersion Energy =          -0.0002394113442784
    VV10 Nonlocal Energy =                  0.0000000000000000
    Total Energy =                      -1194.6899363107959289

  UHF NO Occupations:
  HONO-2 :    4App 1.9991582
  HONO-1 :    5App 1.9984831
  HONO-0 :    6App 1.0000000
  LUNO+0 :    7App 0.0015169
  LUNO+1 :    8App 0.0008418
  LUNO+2 :   20 Ap 0.0004041
  LUNO+3 :   21 Ap 0.0001648


Computation Completed


Properties will be evaluated at   0.000000,   0.000000,   0.000000 [a0]

Properties computed using the SCF density matrix

  Nuclear Dipole Moment: [e a0]
     X:     0.0000      Y:     0.0000      Z:     0.0000

  Electronic Dipole Moment: [e a0]
     X:     0.4436      Y:     0.1518      Z:     0.0000

  Dipole Moment: [e a0]
     X:     0.4436      Y:     0.1518      Z:     0.0000     Total:     0.4688

  Dipole Moment: [D]
     X:     1.1274      Y:     0.3857      Z:     0.0000     Total:     1.1916


*** tstop() called on c2-18.compute.lan at Tue Feb  2 14:47:00 2021
Module time:
	user time   =      83.47 seconds =       1.39 minutes
	system time =       0.63 seconds =       0.01 minutes
	total time  =        119 seconds =       1.98 minutes
Total time:
	user time   =     201.74 seconds =       3.36 minutes
	system time =      58.96 seconds =       0.98 minutes
	total time  =        434 seconds =       7.23 minutes

*** tstart() called on c2-18.compute.lan
*** at Tue Feb  2 14:47:00 2021


         ------------------------------------------------------------
                                   SCF GRAD                          
                          Rob Parrish, Justin Turney,                
                       Andy Simmonett, and Alex Sokolov              
         ------------------------------------------------------------

  ==> Geometry <==

    Molecular point group: cs
    Full point group: Cs

    Geometry (in Angstrom), charge = -1, multiplicity = 2:

       Center              X                  Y                   Z               Mass       
    ------------   -----------------  -----------------  -----------------  -----------------
         S            0.615146610690     0.375612825041     0.000000000000    31.972071174400
         S            0.615146610690    -1.614929144146     0.000000000000    31.972071174400
         S           -1.230293221380     1.239316319105     0.000000000000    31.972071174400

  Nuclear repulsion =  174.399843666568785

  ==> Basis Set <==

  Basis Set: AUG-CC-PVTZ
    Blend: AUG-CC-PVTZ
    Number of shells: 48
    Number of basis function: 150
    Number of Cartesian functions: 177
    Spherical Harmonics?: true
    Max angular momentum: 3

  ==> DFJKGrad: Density-Fitted SCF Gradients <==

    Gradient:                    1
    J tasked:                  Yes
    K tasked:                  Yes
    wK tasked:                 Yes
    Omega:               2.000E-01
    OpenMP threads:              1
    Integrals threads:           1
    Memory [MiB]:             7152
    Schwarz Cutoff:          0E+00
    Fitting Condition:       1E-10

   => Auxiliary Basis Set <=

  Basis Set: (AUG-CC-PVTZ AUX)
    Blend: AUG-CC-PVTZ-JKFIT
    Number of shells: 126
    Number of basis function: 438
    Number of Cartesian functions: 540
    Spherical Harmonics?: true
    Max angular momentum: 4

  ==> DFT Potential <==

   => Composite Functional: WB97X-D <= 

    wB97X-D Hyb-GGA Exchange-Correlation Functional

    J.-D. Chai and M. Head-Gordon, Phys. Chem. Chem. Phys. 10, 6615 (2008)

    Deriv               =              1
    GGA                 =           TRUE
    Meta                =          FALSE

    Exchange Hybrid     =           TRUE
    MP2 Hybrid          =          FALSE

   => Exchange-Correlation Functionals <=

    1.0000   wB97D range-separated functional

   => Exact (HF) Exchange <=

    0.7780            HF,LR [omega = 0.2000]
    0.2220               HF 

   => Molecular Quadrature <=

    Radial Scheme          =       TREUTLER
    Pruning Scheme         =           NONE
    Nuclear Scheme         =       TREUTLER

    BS radius alpha        =              1
    Pruning alpha          =              1
    Radial Points          =             99
    Spherical Points       =            590
    Total Points           =         169942
    Total Blocks           =           1394
    Max Points             =            256
    Max Functions          =            150
    Weights Tolerance      =       1.00E-15


  -Total Gradient:
     Atom            X                  Y                   Z
    ------   -----------------  -----------------  -----------------
       1        0.011284108137    -0.006602654199     0.000000000000
       2        0.000558813907     0.000491818956     0.000000000000
       3       -0.011837927545     0.006147494560     0.000000000000


*** tstop() called on c2-18.compute.lan at Tue Feb  2 14:47:31 2021
Module time:
	user time   =      19.11 seconds =       0.32 minutes
	system time =       0.13 seconds =       0.00 minutes
	total time  =         31 seconds =       0.52 minutes
Total time:
	user time   =     220.85 seconds =       3.68 minutes
	system time =      59.09 seconds =       0.98 minutes
	total time  =        465 seconds =       7.75 minutes

			-----------------------------------------
			 OPTKING 2.0: for geometry optimizations 
			  - R.A. King,  Bethel University        
			-----------------------------------------

	Previous internal coordinate definitions found.
	---Fragment 1 Geometry and Gradient---
	 S           1.1624586212        0.7098053685        0.0000000000
	 S           1.1624586212       -3.0517737945        0.0000000000
	 S          -2.3249172424        2.3419684259        0.0000000000
	             0.0112841081       -0.0066026542        0.0000000000
	             0.0005588139        0.0004918190        0.0000000000
	            -0.0118379275        0.0061474946        0.0000000000

	---Fragment 1 Intrafragment Coordinates---
	 - Coordinate -           - BOHR/RAD -       - ANG/DEG -
	 R(1,2)           =         3.761579	       1.990542
	 R(1,3)           =         3.850422	       2.037555
	 B(2,1,3)         =         2.008535	     115.080553

	Current energy   :     -1194.6899363108

	Energy change for the previous step:
		Projected    :         0.0013410913
		Actual       :        -0.0037636191

	Performing BFGS update.
	Previous computed or guess Hessian on step 1.
	Steps to be used in Hessian update: 1
	Taking RFO optimization step.
	Going to follow RFO solution 1.
	Using RFO vector 1.
	Norm of target step-size    0.08385
	Projected energy change by RFO approximation:        -0.0013338525

	Back-transformation to cartesian coordinates...
	Successfully converged to displaced geometry.

	--- Internal Coordinate Step in ANG or DEG, aJ/ANG or AJ/DEG ---
	 ---------------------------------------------------------------------------
	   Coordinate                Previous        Force       Change         New 
	   ----------                --------       ------       ------       ------
	    1 R(1,2)          =      1.990542     0.003942     0.000541     1.991083
	    2 R(1,3)          =      2.037555    -0.109763    -0.043503     1.994053
	    3 B(2,1,3)        =    115.080553    -0.000159    -0.943602   114.136951
	 ---------------------------------------------------------------------------
	Successfully symmetrized geometry.

  ==> Convergence Check <==

  Measures of convergence in internal coordinates in au.
  Criteria marked as inactive (o), active & met (*), and active & unmet ( ).
  ---------------------------------------------------------------------------------------------
   Step     Total Energy     Delta E     MAX Force     RMS Force      MAX Disp      RMS Disp   
  ---------------------------------------------------------------------------------------------
    Convergence Criteria             o    2.00e-06 *    1.00e-06 *    6.00e-06 *    4.00e-06 *
  ---------------------------------------------------------------------------------------------
      2   -1194.68993631   -3.76e-03 o    1.33e-02      7.79e-03      8.22e-02      4.84e-02    ~
  ---------------------------------------------------------------------------------------------

	Writing optimization data to binary file.
	Structure for next step:
	Cartesian Geometry (in Angstrom)
	    S     0.6082153337   0.3893358827   0.0000000000
	    S     0.5998350253  -1.6017296755   0.0000000000
	    S    -1.2080503590   1.2123937928   0.0000000000
			--------------------------
			 OPTKING Finished Execution 
			--------------------------

    Structure for next step:
    Molecular point group: cs
    Full point group: Cs

    Geometry (in Angstrom), charge = -1, multiplicity = 2:

    S       
    S             1          r1
    S             1          r2      2          a1

    a1        =  114.1369508121
    r1        =    1.9910832022
    r2        =    1.9940525121

gradient() will perform analytic gradient computation.

*** tstart() called on c2-18.compute.lan
*** at Tue Feb  2 14:47:31 2021

   => Loading Basis Set <=

    Name: AUG-CC-PVTZ
    Role: ORBITAL
    Keyword: BASIS
    atoms 1-3 entry S          line   906 file /apps/gb/PSI4/1.4.0/share/psi4/basis/aug-cc-pvtz.gbs 

   => WB97X-D: Empirical Dispersion <=

    Chai and Head-Gordon Dispersion Correction
    Chai, J.-D.; Head-Gordon, M. (2010), J. Chem. Phys., 132: 6615-6620

        s6 =       1.000000


         ---------------------------------------------------------
                                   SCF
               by Justin Turney, Rob Parrish, Andy Simmonett
                          and Daniel G. A. Smith
                              UKS Reference
                        1 Threads,   9536 MiB Core
         ---------------------------------------------------------

  ==> Geometry <==

    Molecular point group: cs
    Full point group: Cs

    Geometry (in Angstrom), charge = -1, multiplicity = 2:

       Center              X                  Y                   Z               Mass       
    ------------   -----------------  -----------------  -----------------  -----------------
         S            0.606571265469     0.391892364899     0.000000000000    31.972071174400
         S            0.606571265469    -1.599190837255     0.000000000000    31.972071174400
         S           -1.213142530938     1.207298472355     0.000000000000    31.972071174400

  Running in cs symmetry.

  Rotational constants: A =      0.67402  B =      0.09426  C =      0.08269 [cm^-1]
  Rotational constants: A =  20206.69421  B =   2825.75074  C =   2479.07164 [MHz]
  Nuclear repulsion =  176.476120784157814

  Charge       = -1
  Multiplicity = 2
  Electrons    = 49
  Nalpha       = 25
  Nbeta        = 24

  ==> Algorithm <==

  SCF Algorithm Type is DF.
  DIIS enabled.
  MOM disabled.
  Fractional occupation disabled.
  Guess Type is READ.
  Energy threshold   = 1.00e-08
  Density threshold  = 1.00e-08
  Integral threshold = 0.00e+00

  ==> Primary Basis <==

  Basis Set: AUG-CC-PVTZ
    Blend: AUG-CC-PVTZ
    Number of shells: 48
    Number of basis function: 150
    Number of Cartesian functions: 177
    Spherical Harmonics?: true
    Max angular momentum: 3

  ==> DFT Potential <==

   => Composite Functional: WB97X-D <= 

    wB97X-D Hyb-GGA Exchange-Correlation Functional

    J.-D. Chai and M. Head-Gordon, Phys. Chem. Chem. Phys. 10, 6615 (2008)

    Deriv               =              1
    GGA                 =           TRUE
    Meta                =          FALSE

    Exchange Hybrid     =           TRUE
    MP2 Hybrid          =          FALSE

   => Exchange-Correlation Functionals <=

    1.0000   wB97D range-separated functional

   => Exact (HF) Exchange <=

    0.7780            HF,LR [omega = 0.2000]
    0.2220               HF 

   => Molecular Quadrature <=

    Radial Scheme          =       TREUTLER
    Pruning Scheme         =           NONE
    Nuclear Scheme         =       TREUTLER

    BS radius alpha        =              1
    Pruning alpha          =              1
    Radial Points          =             99
    Spherical Points       =            590
    Total Points           =         169933
    Total Blocks           =           1402
    Max Points             =            256
    Max Functions          =            150
    Weights Tolerance      =       1.00E-15

   => Loading Basis Set <=

    Name: (AUG-CC-PVTZ AUX)
    Role: JKFIT
    Keyword: DF_BASIS_SCF
    atoms 1-3 entry S          line   730 file /apps/gb/PSI4/1.4.0/share/psi4/basis/aug-cc-pvtz-jkfit.gbs 

   => Loading Basis Set <=

    Name: AUG-CC-PVTZ
    Role: ORBITAL
    Keyword: BASIS
    atoms 1-3 entry S          line   906 file /apps/gb/PSI4/1.4.0/share/psi4/basis/aug-cc-pvtz.gbs 

  Reading orbitals from file 180, no projection.

  ==> Pre-Iterations <==

   -------------------------------------------------------
    Irrep   Nso     Nmo     Nalpha   Nbeta   Ndocc  Nsocc
   -------------------------------------------------------
     A'        99      99       0       0       0       0
     A"        51      51       0       0       0       0
   -------------------------------------------------------
    Total     150     150      25      24      24       1
   -------------------------------------------------------

  ==> Integral Setup <==

  ==> DiskDFJK: Density-Fitted J/K Matrices <==

    J tasked:                  Yes
    K tasked:                  Yes
    wK tasked:                 Yes
    Omega:               2.000E-01
    OpenMP threads:              1
    Integrals threads:           1
    Memory [MiB]:             6482
    Algorithm:                Core
    Integral Cache:           NONE
    Schwarz Cutoff:          1E-12
    Fitting Condition:       1E-10

   => Auxiliary Basis Set <=

  Basis Set: (AUG-CC-PVTZ AUX)
    Blend: AUG-CC-PVTZ-JKFIT
    Number of shells: 126
    Number of basis function: 438
    Number of Cartesian functions: 540
    Spherical Harmonics?: true
    Max angular momentum: 4

  Cached 100.0% of DFT collocation blocks in 0.654 [GiB].

  Minimum eigenvalue in the overlap matrix is 2.1541280036E-04.
  Using Symmetric Orthogonalization.

  SCF Guess: Orbitals guess was supplied from a previous computation.

  ==> Iterations <==

                           Total Energy        Delta E     RMS |[F,P]|

   @DF-UKS iter   0: -1194.70358734024103   -1.19470e+03   9.94685e-04 
   @DF-UKS iter   1: -1194.69018094742705    1.34064e-02   1.68999e-04 DIIS
   @DF-UKS iter   2: -1194.69018999764558   -9.05022e-06   1.80895e-04 DIIS
   @DF-UKS iter   3: -1194.69043096958762   -2.40972e-04   2.25968e-05 DIIS
   @DF-UKS iter   4: -1194.69043570678946   -4.73720e-06   6.57438e-06 DIIS
   @DF-UKS iter   5: -1194.69043756599513   -1.85921e-06   3.90991e-06 DIIS
   @DF-UKS iter   6: -1194.69043807455182   -5.08557e-07   2.14386e-06 DIIS
   @DF-UKS iter   7: -1194.69043841614916   -3.41597e-07   1.47203e-06 DIIS
   @DF-UKS iter   8: -1194.69043858090981   -1.64761e-07   7.66487e-07 DIIS
   @DF-UKS iter   9: -1194.69043863576508   -5.48553e-08   4.55706e-07 DIIS
   @DF-UKS iter  10: -1194.69043864506466   -9.29958e-09   8.77376e-08 DIIS
   @DF-UKS iter  11: -1194.69043864546302   -3.98359e-10   2.32456e-08 DIIS
   @DF-UKS iter  12: -1194.69043864548098   -1.79625e-11   8.79757e-09 DIIS
  Energy and wave function converged.


  ==> Post-Iterations <==

   @Spin Contamination Metric:   6.256917929E-03
   @S^2 Expected:                7.500000000E-01
   @S^2 Observed:                7.562569179E-01
   @S   Expected:                5.000000000E-01
   @S   Observed:                5.000000000E-01

    Orbital Energies [Eh]
    ---------------------

    Alpha Occupied:                                                       

       1Ap   -88.945097     2Ap   -88.856258     3Ap   -88.856008  
       4Ap    -7.947020     5Ap    -7.865085     6Ap    -7.864780  
       7Ap    -5.895450     1App   -5.894154     8Ap    -5.891235  
       9Ap    -5.815172    10Ap    -5.814889     2App   -5.811168  
       3App   -5.810844    11Ap    -5.806491    12Ap    -5.806188  
      13Ap    -0.745459    14Ap    -0.608975    15Ap    -0.482154  
      16Ap    -0.293324     4App   -0.275835    17Ap    -0.273890  
       5App   -0.163897    18Ap    -0.140190    19Ap    -0.133802  
       6App   -0.094708  

    Alpha Virtual:                                                        

      20Ap     0.172329    21Ap     0.172718    22Ap     0.206114  
      23Ap     0.220437     7App    0.224730    24Ap     0.232632  
       8App    0.239674     9App    0.244623    25Ap     0.249434  
      26Ap     0.251041    27Ap     0.265245    28Ap     0.275969  
      29Ap     0.337997    30Ap     0.352346    10App    0.368708  
      11App    0.389543    31Ap     0.395551    32Ap     0.432185  
      33Ap     0.444684    34Ap     0.445599    12App    0.457552  
      35Ap     0.459530    13App    0.472991    14App    0.508621  
      36Ap     0.520801    37Ap     0.525424    38Ap     0.551968  
      15App    0.556077    39Ap     0.582202    16App    0.628632  
      40Ap     0.665091    17App    0.706749    41Ap     0.713876  
      42Ap     0.731802    43Ap     0.735473    18App    0.741810  
      19App    0.743879    44Ap     0.745790    45Ap     0.747362  
      20App    0.752265    46Ap     0.769831    47Ap     0.791391  
      21App    0.817846    48Ap     0.828086    49Ap     0.830672  
      22App    0.841380    50Ap     0.851961    51Ap     0.867344  
      52Ap     0.884507    23App    0.895117    24App    0.934886  
      53Ap     0.941302    25App    0.941968    54Ap     0.992845  
      55Ap     0.996284    26App    0.998968    27App    0.999124  
      56Ap     1.029017    57Ap     1.065584    58Ap     1.078506  
      59Ap     1.161593    28App    1.180201    29App    1.187894  
      60Ap     1.222528    30App    1.240357    61Ap     1.246163  
      31App    1.323709    62Ap     1.342884    63Ap     1.345753  
      64Ap     1.367860    32App    1.402713    65Ap     1.409365  
      33App    1.413325    66Ap     1.508136    67Ap     1.527136  
      68Ap     1.615167    69Ap     1.694488    70Ap     1.993566  
      34App    2.006722    35App    2.031419    71Ap     2.045306  
      72Ap     2.071698    36App    2.075989    73Ap     2.084078  
      37App    2.084093    74Ap     2.097391    38App    2.143948  
      75Ap     2.144421    76Ap     2.190476    77Ap     2.198576  
      78Ap     2.203230    39App    2.207640    40App    2.211775  
      41App    2.229131    79Ap     2.236443    80Ap     2.268166  
      42App    2.269931    43App    2.279948    81Ap     2.336372  
      82Ap     2.343338    44App    2.369442    45App    2.384393  
      83Ap     2.394686    84Ap     2.400791    46App    2.456957  
      85Ap     2.481532    47App    2.496109    48App    2.502550  
      86Ap     2.517578    87Ap     2.524737    49App    2.561250  
      88Ap     2.600063    89Ap     2.625793    90Ap     2.684233  
      91Ap     2.700580    92Ap     2.790318    50App    2.810149  
      51App    2.812564    93Ap     2.841940    94Ap     2.925154  
      95Ap     3.867096    96Ap     3.929204    97Ap     4.980894  
      98Ap     5.458229    99Ap     5.831504  

    Beta Occupied:                                                        

       1Ap   -88.942345     2Ap   -88.854652     3Ap   -88.854411  
       4Ap    -7.944201     5Ap    -7.863386     6Ap    -7.863090  
       7Ap    -5.893583     8Ap    -5.889452     1App   -5.884761  
       9Ap    -5.814232    10Ap    -5.813955     2App   -5.805393  
      11Ap    -5.805326     3App   -5.805099    12Ap    -5.805029  
      13Ap    -0.733414    14Ap    -0.599064    15Ap    -0.459515  
      16Ap    -0.285219    17Ap    -0.267625     4App   -0.241046  
      18Ap    -0.134485    19Ap    -0.129753     5App   -0.122551  

    Beta Virtual:                                                         

       6App    0.117610    20Ap     0.174017    21Ap     0.174973  
      22Ap     0.207011    23Ap     0.223614     7App    0.227423  
      24Ap     0.233169     8App    0.241705     9App    0.249861  
      25Ap     0.250661    26Ap     0.254822    27Ap     0.265230  
      28Ap     0.280286    29Ap     0.338884    30Ap     0.352361  
      10App    0.372404    31Ap     0.396687    11App    0.396739  
      32Ap     0.432760    33Ap     0.447382    34Ap     0.448274  
      35Ap     0.463857    12App    0.465022    13App    0.477556  
      14App    0.513470    36Ap     0.520968    37Ap     0.527403  
      38Ap     0.553253    15App    0.559874    39Ap     0.584225  
      16App    0.634969    40Ap     0.667018    17App    0.710044  
      41Ap     0.714536    42Ap     0.733954    43Ap     0.737041  
      44Ap     0.748211    45Ap     0.750344    18App    0.751766  
      19App    0.751828    20App    0.757250    46Ap     0.770785  
      47Ap     0.794394    21App    0.826466    48Ap     0.835225  
      49Ap     0.835687    22App    0.849114    50Ap     0.856130  
      51Ap     0.876276    52Ap     0.889639    23App    0.905431  
      24App    0.940799    53Ap     0.945921    25App    0.954478  
      54Ap     0.995866    55Ap     0.998443    26App    1.000969  
      27App    1.002829    56Ap     1.036084    57Ap     1.068908  
      58Ap     1.080932    59Ap     1.162504    28App    1.182538  
      29App    1.192927    60Ap     1.226367    30App    1.244376  
      61Ap     1.248513    31App    1.327757    62Ap     1.344560  
      63Ap     1.347861    64Ap     1.371317    32App    1.408765  
      65Ap     1.411796    33App    1.420951    66Ap     1.509561  
      67Ap     1.533641    68Ap     1.621375    69Ap     1.704032  
      70Ap     2.003113    34App    2.017657    35App    2.039830  
      71Ap     2.053470    72Ap     2.081050    36App    2.084286  
      73Ap     2.087011    37App    2.092766    74Ap     2.100276  
      75Ap     2.145389    38App    2.158515    76Ap     2.193925  
      77Ap     2.206239    78Ap     2.209300    39App    2.223254  
      40App    2.223959    41App    2.238762    79Ap     2.240172  
      80Ap     2.275862    42App    2.284069    43App    2.296891  
      81Ap     2.341284    82Ap     2.350080    44App    2.380665  
      45App    2.394983    83Ap     2.402466    84Ap     2.408673  
      46App    2.464236    85Ap     2.489338    47App    2.508564  
      48App    2.515889    86Ap     2.523542    87Ap     2.529689  
      49App    2.573849    88Ap     2.610483    89Ap     2.629779  
      90Ap     2.688530    91Ap     2.705437    92Ap     2.795413  
      50App    2.821745    51App    2.826710    93Ap     2.844503  
      94Ap     2.927423    95Ap     3.870365    96Ap     3.932687  
      97Ap     4.987107    98Ap     5.462648    99Ap     5.837161  

    Final Occupation by Irrep:
             Ap   App 
    DOCC [    19,    5 ]
    SOCC [     0,    1 ]

  @DF-UKS Final Energy: -1194.69043864548098

   => Energetics <=

    Nuclear Repulsion Energy =            176.4761207841578141
    One-Electron Energy =               -2011.6492846591631860
    Two-Electron Energy =                 696.8512804257895823
    DFT Exchange-Correlation Energy =     -56.3683315319952456
    Empirical Dispersion Energy =          -0.0002236642698617
    VV10 Nonlocal Energy =                  0.0000000000000000
    Total Energy =                      -1194.6904386454809810

  UHF NO Occupations:
  HONO-2 :    4App 1.9991727
  HONO-1 :    5App 1.9985047
  HONO-0 :    6App 1.0000000
  LUNO+0 :    7App 0.0014953
  LUNO+1 :    8App 0.0008273
  LUNO+2 :   20 Ap 0.0004094
  LUNO+3 :   21 Ap 0.0001561


Computation Completed


Properties will be evaluated at   0.000000,   0.000000,   0.000000 [a0]

Properties computed using the SCF density matrix

  Nuclear Dipole Moment: [e a0]
     X:     0.0000      Y:    -0.0000      Z:     0.0000

  Electronic Dipole Moment: [e a0]
     X:     0.3850      Y:     0.2411      Z:     0.0000

  Dipole Moment: [e a0]
     X:     0.3850      Y:     0.2411      Z:     0.0000     Total:     0.4542

  Dipole Moment: [D]
     X:     0.9785      Y:     0.6127      Z:     0.0000     Total:     1.1545


*** tstop() called on c2-18.compute.lan at Tue Feb  2 14:49:04 2021
Module time:
	user time   =      78.50 seconds =       1.31 minutes
	system time =       0.64 seconds =       0.01 minutes
	total time  =         93 seconds =       1.55 minutes
Total time:
	user time   =     299.37 seconds =       4.99 minutes
	system time =      59.74 seconds =       1.00 minutes
	total time  =        558 seconds =       9.30 minutes

*** tstart() called on c2-18.compute.lan
*** at Tue Feb  2 14:49:04 2021


         ------------------------------------------------------------
                                   SCF GRAD                          
                          Rob Parrish, Justin Turney,                
                       Andy Simmonett, and Alex Sokolov              
         ------------------------------------------------------------

  ==> Geometry <==

    Molecular point group: cs
    Full point group: Cs

    Geometry (in Angstrom), charge = -1, multiplicity = 2:

       Center              X                  Y                   Z               Mass       
    ------------   -----------------  -----------------  -----------------  -----------------
         S            0.606571265469     0.391892364899     0.000000000000    31.972071174400
         S            0.606571265469    -1.599190837255     0.000000000000    31.972071174400
         S           -1.213142530938     1.207298472355     0.000000000000    31.972071174400

  Nuclear repulsion =  176.476120784157814

  ==> Basis Set <==

  Basis Set: AUG-CC-PVTZ
    Blend: AUG-CC-PVTZ
    Number of shells: 48
    Number of basis function: 150
    Number of Cartesian functions: 177
    Spherical Harmonics?: true
    Max angular momentum: 3

  ==> DFJKGrad: Density-Fitted SCF Gradients <==

    Gradient:                    1
    J tasked:                  Yes
    K tasked:                  Yes
    wK tasked:                 Yes
    Omega:               2.000E-01
    OpenMP threads:              1
    Integrals threads:           1
    Memory [MiB]:             7152
    Schwarz Cutoff:          0E+00
    Fitting Condition:       1E-10

   => Auxiliary Basis Set <=

  Basis Set: (AUG-CC-PVTZ AUX)
    Blend: AUG-CC-PVTZ-JKFIT
    Number of shells: 126
    Number of basis function: 438
    Number of Cartesian functions: 540
    Spherical Harmonics?: true
    Max angular momentum: 4

  ==> DFT Potential <==

   => Composite Functional: WB97X-D <= 

    wB97X-D Hyb-GGA Exchange-Correlation Functional

    J.-D. Chai and M. Head-Gordon, Phys. Chem. Chem. Phys. 10, 6615 (2008)

    Deriv               =              1
    GGA                 =           TRUE
    Meta                =          FALSE

    Exchange Hybrid     =           TRUE
    MP2 Hybrid          =          FALSE

   => Exchange-Correlation Functionals <=

    1.0000   wB97D range-separated functional

   => Exact (HF) Exchange <=

    0.7780            HF,LR [omega = 0.2000]
    0.2220               HF 

   => Molecular Quadrature <=

    Radial Scheme          =       TREUTLER
    Pruning Scheme         =           NONE
    Nuclear Scheme         =       TREUTLER

    BS radius alpha        =              1
    Pruning alpha          =              1
    Radial Points          =             99
    Spherical Points       =            590
    Total Points           =         169933
    Total Blocks           =           1402
    Max Points             =            256
    Max Functions          =            150
    Weights Tolerance      =       1.00E-15


  -Total Gradient:
     Atom            X                  Y                   Z
    ------   -----------------  -----------------  -----------------
       1       -0.000323404111    -0.001194046330     0.000000000000
       2       -0.000775896716     0.002569616620     0.000000000000
       3        0.001128496250    -0.001353536634     0.000000000000


*** tstop() called on c2-18.compute.lan at Tue Feb  2 14:49:30 2021
Module time:
	user time   =      19.28 seconds =       0.32 minutes
	system time =       0.12 seconds =       0.00 minutes
	total time  =         26 seconds =       0.43 minutes
Total time:
	user time   =     318.65 seconds =       5.31 minutes
	system time =      59.86 seconds =       1.00 minutes
	total time  =        584 seconds =       9.73 minutes

			-----------------------------------------
			 OPTKING 2.0: for geometry optimizations 
			  - R.A. King,  Bethel University        
			-----------------------------------------

	Previous internal coordinate definitions found.
	---Fragment 1 Geometry and Gradient---
	 S           1.1462535673        0.7405692403        0.0000000000
	 S           1.1462535673       -3.0220327048        0.0000000000
	 S          -2.2925071346        2.2814634644        0.0000000000
	            -0.0003234041       -0.0011940463        0.0000000000
	            -0.0007758967        0.0025696166        0.0000000000
	             0.0011284962       -0.0013535366        0.0000000000

	---Fragment 1 Intrafragment Coordinates---
	 - Coordinate -           - BOHR/RAD -       - ANG/DEG -
	 R(1,2)           =         3.762602	       1.991083
	 R(1,3)           =         3.768213	       1.994053
	 B(2,1,3)         =         1.992066	     114.136951

	Current energy   :     -1194.6904386455

	Energy change for the previous step:
		Projected    :        -0.0013338525
		Actual       :        -0.0005023347

	Performing BFGS update.
	Previous computed or guess Hessian on step 1.
	Steps to be used in Hessian update: 2 1
	Taking RFO optimization step.
	Going to follow RFO solution 1.
	Using RFO vector 1.
	Norm of target step-size    0.01656
	Projected energy change by RFO approximation:        -0.0000294713

	Back-transformation to cartesian coordinates...
	Successfully converged to displaced geometry.

	--- Internal Coordinate Step in ANG or DEG, aJ/ANG or AJ/DEG ---
	 ---------------------------------------------------------------------------
	   Coordinate                Previous        Force       Change         New 
	   ----------                --------       ------       ------       ------
	    1 R(1,2)          =      1.991083     0.021110     0.003622     1.994705
	    2 R(1,3)          =      1.994053     0.012996     0.005240     1.999292
	    3 B(2,1,3)        =    114.136951     0.000225     0.652046   114.788997
	 ---------------------------------------------------------------------------
	Successfully symmetrized geometry.

  ==> Convergence Check <==

  Measures of convergence in internal coordinates in au.
  Criteria marked as inactive (o), active & met (*), and active & unmet ( ).
  ---------------------------------------------------------------------------------------------
   Step     Total Energy     Delta E     MAX Force     RMS Force      MAX Disp      RMS Disp   
  ---------------------------------------------------------------------------------------------
    Convergence Criteria             o    2.00e-06 *    1.00e-06 *    6.00e-06 *    4.00e-06 *
  ---------------------------------------------------------------------------------------------
      3   -1194.69043865   -5.02e-04 o    2.96e-03      2.44e-03      1.14e-02      9.56e-03    ~
  ---------------------------------------------------------------------------------------------

	Writing optimization data to binary file.
	Structure for next step:
	Cartesian Geometry (in Angstrom)
	    S     0.6028769224   0.3888321787   0.0000000000
	    S     0.6139414629  -1.6058420453   0.0000000000
	    S    -1.2168183853   1.2170098666   0.0000000000
			--------------------------
			 OPTKING Finished Execution 
			--------------------------

    Structure for next step:
    Molecular point group: cs
    Full point group: Cs

    Geometry (in Angstrom), charge = -1, multiplicity = 2:

    S       
    S             1          r1
    S             1          r2      2          a1

    a1        =  114.7889966587
    r1        =    1.9947049193
    r2        =    1.9992922066

gradient() will perform analytic gradient computation.

*** tstart() called on c2-18.compute.lan
*** at Tue Feb  2 14:49:30 2021

   => Loading Basis Set <=

    Name: AUG-CC-PVTZ
    Role: ORBITAL
    Keyword: BASIS
    atoms 1-3 entry S          line   906 file /apps/gb/PSI4/1.4.0/share/psi4/basis/aug-cc-pvtz.gbs 

   => WB97X-D: Empirical Dispersion <=

    Chai and Head-Gordon Dispersion Correction
    Chai, J.-D.; Head-Gordon, M. (2010), J. Chem. Phys., 132: 6615-6620

        s6 =       1.000000


         ---------------------------------------------------------
                                   SCF
               by Justin Turney, Rob Parrish, Andy Simmonett
                          and Daniel G. A. Smith
                              UKS Reference
                        1 Threads,   9536 MiB Core
         ---------------------------------------------------------

  ==> Geometry <==

    Molecular point group: cs
    Full point group: Cs

    Geometry (in Angstrom), charge = -1, multiplicity = 2:

       Center              X                  Y                   Z               Mass       
    ------------   -----------------  -----------------  -----------------  -----------------
         S            0.605024484869     0.385482066430     0.000000000000    31.972071174400
         S            0.605024484869    -1.609222852849     0.000000000000    31.972071174400
         S           -1.210048969738     1.223740786419     0.000000000000    31.972071174400

  Running in cs symmetry.

  Rotational constants: A =      0.68301  B =      0.09315  C =      0.08197 [cm^-1]
  Rotational constants: A =  20476.01904  B =   2792.69083  C =   2457.51444 [MHz]
  Nuclear repulsion =  175.936930965950950

  Charge       = -1
  Multiplicity = 2
  Electrons    = 49
  Nalpha       = 25
  Nbeta        = 24

  ==> Algorithm <==

  SCF Algorithm Type is DF.
  DIIS enabled.
  MOM disabled.
  Fractional occupation disabled.
  Guess Type is READ.
  Energy threshold   = 1.00e-08
  Density threshold  = 1.00e-08
  Integral threshold = 0.00e+00

  ==> Primary Basis <==

  Basis Set: AUG-CC-PVTZ
    Blend: AUG-CC-PVTZ
    Number of shells: 48
    Number of basis function: 150
    Number of Cartesian functions: 177
    Spherical Harmonics?: true
    Max angular momentum: 3

  ==> DFT Potential <==

   => Composite Functional: WB97X-D <= 

    wB97X-D Hyb-GGA Exchange-Correlation Functional

    J.-D. Chai and M. Head-Gordon, Phys. Chem. Chem. Phys. 10, 6615 (2008)

    Deriv               =              1
    GGA                 =           TRUE
    Meta                =          FALSE

    Exchange Hybrid     =           TRUE
    MP2 Hybrid          =          FALSE

   => Exchange-Correlation Functionals <=

    1.0000   wB97D range-separated functional

   => Exact (HF) Exchange <=

    0.7780            HF,LR [omega = 0.2000]
    0.2220               HF 

   => Molecular Quadrature <=

    Radial Scheme          =       TREUTLER
    Pruning Scheme         =           NONE
    Nuclear Scheme         =       TREUTLER

    BS radius alpha        =              1
    Pruning alpha          =              1
    Radial Points          =             99
    Spherical Points       =            590
    Total Points           =         169929
    Total Blocks           =           1383
    Max Points             =            256
    Max Functions          =            150
    Weights Tolerance      =       1.00E-15

   => Loading Basis Set <=

    Name: (AUG-CC-PVTZ AUX)
    Role: JKFIT
    Keyword: DF_BASIS_SCF
    atoms 1-3 entry S          line   730 file /apps/gb/PSI4/1.4.0/share/psi4/basis/aug-cc-pvtz-jkfit.gbs 

   => Loading Basis Set <=

    Name: AUG-CC-PVTZ
    Role: ORBITAL
    Keyword: BASIS
    atoms 1-3 entry S          line   906 file /apps/gb/PSI4/1.4.0/share/psi4/basis/aug-cc-pvtz.gbs 

  Reading orbitals from file 180, no projection.

  ==> Pre-Iterations <==

   -------------------------------------------------------
    Irrep   Nso     Nmo     Nalpha   Nbeta   Ndocc  Nsocc
   -------------------------------------------------------
     A'        99      99       0       0       0       0
     A"        51      51       0       0       0       0
   -------------------------------------------------------
    Total     150     150      25      24      24       1
   -------------------------------------------------------

  ==> Integral Setup <==

  ==> DiskDFJK: Density-Fitted J/K Matrices <==

    J tasked:                  Yes
    K tasked:                  Yes
    wK tasked:                 Yes
    Omega:               2.000E-01
    OpenMP threads:              1
    Integrals threads:           1
    Memory [MiB]:             6483
    Algorithm:                Core
    Integral Cache:           NONE
    Schwarz Cutoff:          1E-12
    Fitting Condition:       1E-10

   => Auxiliary Basis Set <=

  Basis Set: (AUG-CC-PVTZ AUX)
    Blend: AUG-CC-PVTZ-JKFIT
    Number of shells: 126
    Number of basis function: 438
    Number of Cartesian functions: 540
    Spherical Harmonics?: true
    Max angular momentum: 4

  Cached 100.0% of DFT collocation blocks in 0.654 [GiB].

  Minimum eigenvalue in the overlap matrix is 2.1721069515E-04.
  Using Symmetric Orthogonalization.

  SCF Guess: Orbitals guess was supplied from a previous computation.

  ==> Iterations <==

                           Total Energy        Delta E     RMS |[F,P]|

   @DF-UKS iter   0: -1194.68780524154749   -1.19469e+03   2.80103e-04 
   @DF-UKS iter   1: -1194.69045527938192   -2.65004e-03   3.34445e-05 DIIS
   @DF-UKS iter   2: -1194.69045907928444   -3.79990e-06   3.66759e-05 DIIS
   @DF-UKS iter   3: -1194.69046903867161   -9.95939e-06   4.97691e-06 DIIS
   @DF-UKS iter   4: -1194.69046966740416   -6.28733e-07   2.24190e-06 DIIS
   @DF-UKS iter   5: -1194.69046979780751   -1.30403e-07   7.09592e-07 DIIS
   @DF-UKS iter   6: -1194.69046981103565   -1.32281e-08   2.57862e-07 DIIS
   @DF-UKS iter   7: -1194.69046981343763   -2.40198e-09   1.67411e-07 DIIS
   @DF-UKS iter   8: -1194.69046981393058   -4.92946e-10   6.56322e-08 DIIS
   @DF-UKS iter   9: -1194.69046981422275   -2.92175e-10   5.28588e-08 DIIS
   @DF-UKS iter  10: -1194.69046981438805   -1.65301e-10   2.70636e-08 DIIS
   @DF-UKS iter  11: -1194.69046981447900   -9.09495e-11   9.48500e-09 DIIS
  Energy and wave function converged.


  ==> Post-Iterations <==

   @Spin Contamination Metric:   6.281051559E-03
   @S^2 Expected:                7.500000000E-01
   @S^2 Observed:                7.562810516E-01
   @S   Expected:                5.000000000E-01
   @S   Observed:                5.000000000E-01

    Orbital Energies [Eh]
    ---------------------

    Alpha Occupied:                                                       

       1Ap   -88.945446     2Ap   -88.857028     3Ap   -88.856641  
       4Ap    -7.947244     5Ap    -7.865746     6Ap    -7.865276  
       7Ap    -5.895686     1App   -5.894381     8Ap    -5.891462  
       9Ap    -5.815849    10Ap    -5.815412     2App   -5.811836  
       3App   -5.811337    11Ap    -5.807155    12Ap    -5.806688  
      13Ap    -0.744246    14Ap    -0.608980    15Ap    -0.482741  
      16Ap    -0.293381     4App   -0.275295    17Ap    -0.273196  
       5App   -0.164309    18Ap    -0.139938    19Ap    -0.134697  
       6App   -0.095306  

    Alpha Virtual:                                                        

      20Ap     0.172193    21Ap     0.172485    22Ap     0.206126  
      23Ap     0.219394     7App    0.224639    24Ap     0.232588  
       8App    0.239598     9App    0.244825    25Ap     0.249700  
      26Ap     0.250288    27Ap     0.265038    28Ap     0.275584  
      29Ap     0.337899    30Ap     0.352141    10App    0.368244  
      11App    0.389364    31Ap     0.394310    32Ap     0.431749  
      33Ap     0.445049    34Ap     0.445265    12App    0.457913  
      35Ap     0.460192    13App    0.471764    14App    0.508509  
      36Ap     0.521141    37Ap     0.524431    38Ap     0.550948  
      15App    0.556313    39Ap     0.582387    16App    0.628525  
      40Ap     0.663948    17App    0.706296    41Ap     0.714349  
      42Ap     0.731394    43Ap     0.735507    18App    0.742018  
[...]
      13Ap    -0.744144    14Ap    -0.608914    15Ap    -0.482812  
      16Ap    -0.293345     4App   -0.275247    17Ap    -0.273169  
       5App   -0.164295    18Ap    -0.139975    19Ap    -0.134677  
       6App   -0.095371  

    Alpha Virtual:                                                        

      20Ap     0.172191    21Ap     0.172459    22Ap     0.206116  
      23Ap     0.219377     7App    0.224643    24Ap     0.232577  
       8App    0.239602     9App    0.244815    25Ap     0.249664  
      26Ap     0.250234    27Ap     0.265043    28Ap     0.275484  
      29Ap     0.337899    30Ap     0.352123    10App    0.368255  
      11App    0.389345    31Ap     0.394345    32Ap     0.431758  
      33Ap     0.445017    34Ap     0.445233    12App    0.457859  
      35Ap     0.460163    13App    0.471781    14App    0.508495  
      36Ap     0.521116    37Ap     0.524401    38Ap     0.550898  
      15App    0.556272    39Ap     0.582356    16App    0.628535  
      40Ap     0.663986    17App    0.706328    41Ap     0.714354  
      42Ap     0.731439    43Ap     0.735527    18App    0.742013  
      19App    0.744151    44Ap     0.746380    45Ap     0.747235  
      20App    0.753093    46Ap     0.769713    47Ap     0.792590  
      21App    0.817897    48Ap     0.827749    49Ap     0.829720  
      22App    0.840635    50Ap     0.851010    51Ap     0.866477  
      52Ap     0.883732    23App    0.892993    24App    0.933449  
      53Ap     0.939478    25App    0.941628    54Ap     0.992211  
      55Ap     0.994520    26App    0.997406    27App    0.999202  
      56Ap     1.029436    57Ap     1.063250    58Ap     1.075086  
      59Ap     1.158680    28App    1.176051    29App    1.186923  
      60Ap     1.220790    30App    1.239914    61Ap     1.246394  
      31App    1.322686    62Ap     1.341713    63Ap     1.343170  
      64Ap     1.367359    32App    1.403813    65Ap     1.406585  
      33App    1.412442    66Ap     1.509545    67Ap     1.526254  
      68Ap     1.613293    69Ap     1.695282    70Ap     1.993163  
      34App    2.006752    35App    2.031654    71Ap     2.044818  
      72Ap     2.072417    36App    2.075123    37App    2.084121  
      73Ap     2.084529    74Ap     2.097764    38App    2.145145  
      75Ap     2.146753    76Ap     2.190486    77Ap     2.199011  
      78Ap     2.202251    39App    2.208213    40App    2.210442  
      41App    2.228873    79Ap     2.234618    42App    2.268392  
      80Ap     2.268685    43App    2.280468    81Ap     2.334921  
      82Ap     2.343882    44App    2.368653    45App    2.383557  
      83Ap     2.391780    84Ap     2.398872    46App    2.456462  
      85Ap     2.479370    47App    2.494016    48App    2.500037  
      86Ap     2.513973    87Ap     2.522062    49App    2.558583  
      88Ap     2.600003    89Ap     2.626627    90Ap     2.681563  
      91Ap     2.695828    92Ap     2.781805    50App    2.806310  
      51App    2.809262    93Ap     2.827212    94Ap     2.925180  
      95Ap     3.865110    96Ap     3.926287    97Ap     4.979977  
      98Ap     5.445729    99Ap     5.827061  

    Beta Occupied:                                                        

       1Ap   -88.942738     2Ap   -88.855261     3Ap   -88.855258  
       4Ap    -7.944459     5Ap    -7.863839     6Ap    -7.863829  
       7Ap    -5.893854     8Ap    -5.889715     1App   -5.885015  
       9Ap    -5.814716    10Ap    -5.814715     2App   -5.805837  
       3App   -5.805836    11Ap    -5.805777    12Ap    -5.805777  
      13Ap    -0.732018    14Ap    -0.598956    15Ap    -0.460175  
      16Ap    -0.285256    17Ap    -0.266927     4App   -0.240359  
      18Ap    -0.134266    19Ap    -0.130632     5App   -0.122761  

    Beta Virtual:                                                         

       6App    0.116902    20Ap     0.173859    21Ap     0.174740  
      22Ap     0.207006    23Ap     0.222677     7App    0.227356  
      24Ap     0.233109     8App    0.241614     9App    0.249919  
      25Ap     0.250883    26Ap     0.253895    27Ap     0.264997  
      28Ap     0.279792    29Ap     0.338798    30Ap     0.352138  
      10App    0.371956    31Ap     0.395436    11App    0.396520  
      32Ap     0.432329    33Ap     0.447715    34Ap     0.447917  
      35Ap     0.464506    12App    0.465312    13App    0.476389  
      14App    0.513362    36Ap     0.521287    37Ap     0.526373  
      38Ap     0.552193    15App    0.560139    39Ap     0.584410  
      16App    0.634915    40Ap     0.665911    17App    0.709632  
      41Ap     0.715018    42Ap     0.733603    43Ap     0.737084  
      44Ap     0.748073    45Ap     0.750962    18App    0.751965  
      19App    0.752035    20App    0.758180    46Ap     0.770707  
      47Ap     0.795607    21App    0.826522    48Ap     0.834078  
      49Ap     0.835378    22App    0.848355    50Ap     0.855496  
      51Ap     0.875337    52Ap     0.888785    23App    0.903208  
      24App    0.939546    53Ap     0.944302    25App    0.954180  
      54Ap     0.995117    55Ap     0.996671    26App    0.999259  
      27App    1.003017    56Ap     1.036495    57Ap     1.066550  
      58Ap     1.077565    59Ap     1.159648    28App    1.178412  
      29App    1.191938    60Ap     1.224631    30App    1.243927  
      61Ap     1.248766    31App    1.326751    62Ap     1.343383  
      63Ap     1.345079    64Ap     1.370961    65Ap     1.409002  
      32App    1.409846    33App    1.420051    66Ap     1.510988  
      67Ap     1.532744    68Ap     1.619489    69Ap     1.704855  
      70Ap     2.002720    34App    2.017753    35App    2.040113  
      71Ap     2.053080    72Ap     2.081911    36App    2.083451  
      73Ap     2.087316    37App    2.092843    74Ap     2.100590  
      75Ap     2.147704    38App    2.159686    76Ap     2.193762  
      77Ap     2.206726    78Ap     2.208239    39App    2.222720  
      40App    2.223942    41App    2.238396    79Ap     2.238528  
      80Ap     2.276360    42App    2.282592    43App    2.297266  
      81Ap     2.339836    82Ap     2.350500    44App    2.379868  
      45App    2.394209    83Ap     2.399719    84Ap     2.406853  
      46App    2.463692    85Ap     2.487297    47App    2.506515  
      48App    2.513437    86Ap     2.519900    87Ap     2.527048  
      49App    2.571220    88Ap     2.610708    89Ap     2.630269  
      90Ap     2.685985    91Ap     2.700510    92Ap     2.786916  
      50App    2.817653    51App    2.823660    93Ap     2.829800  
      94Ap     2.927465    95Ap     3.868390    96Ap     3.929783  
      97Ap     4.986238    98Ap     5.450150    99Ap     5.832716  

    Final Occupation by Irrep:
             Ap   App 
    DOCC [    19,    5 ]
    SOCC [     0,    1 ]

  @DF-UKS Final Energy: -1194.69047307677124

   => Energetics <=

    Nuclear Repulsion Energy =            175.9074768457227833
    One-Electron Energy =               -2010.5001998012953663
    Two-Electron Energy =                 696.2677786218662277
    DFT Exchange-Correlation Energy =     -56.3652994923264643
    Empirical Dispersion Energy =          -0.0002292507385334
    VV10 Nonlocal Energy =                  0.0000000000000000
    Total Energy =                      -1194.6904730767712408

  UHF NO Occupations:
  HONO-2 :    4App 1.9991702
  HONO-1 :    5App 1.9984952
  HONO-0 :    6App 1.0000000
  LUNO+0 :    7App 0.0015048
  LUNO+1 :    8App 0.0008298
  LUNO+2 :   20 Ap 0.0004093
  LUNO+3 :   21 Ap 0.0001557


Computation Completed


Properties will be evaluated at   0.000000,   0.000000,   0.000000 [a0]

Properties computed using the SCF density matrix

  Nuclear Dipole Moment: [e a0]
     X:     0.0000      Y:     0.0000      Z:     0.0000

  Electronic Dipole Moment: [e a0]
     X:     0.3809      Y:     0.2438      Z:     0.0000

  Dipole Moment: [e a0]
     X:     0.3809      Y:     0.2438      Z:     0.0000     Total:     0.4523

  Dipole Moment: [D]
     X:     0.9681      Y:     0.6198      Z:     0.0000     Total:     1.1495


*** tstop() called on c2-18.compute.lan at Tue Feb  2 15:16:36 2021
Module time:
	user time   =      86.15 seconds =       1.44 minutes
	system time =       0.41 seconds =       0.01 minutes
	total time  =        103 seconds =       1.72 minutes
Total time:
	user time   =    1532.47 seconds =      25.54 minutes
	system time =      66.05 seconds =       1.10 minutes
	total time  =       2210 seconds =      36.83 minutes

*** tstart() called on c2-18.compute.lan
*** at Tue Feb  2 15:16:36 2021


         ------------------------------------------------------------
                                   SCF GRAD                          
                          Rob Parrish, Justin Turney,                
                       Andy Simmonett, and Alex Sokolov              
         ------------------------------------------------------------

  ==> Geometry <==

    Molecular point group: cs
    Full point group: Cs

    Geometry (in Angstrom), charge = -1, multiplicity = 2:

       Center              X                  Y                   Z               Mass       
    ------------   -----------------  -----------------  -----------------  -----------------
         S            0.604568872253     0.387023097767     0.000000000000    31.972071174400
         S            0.604747266820    -1.610385924873     0.000000000000    31.972071174400
         S           -1.209316139073     1.223362827106     0.000000000000    31.972071174400

  Nuclear repulsion =  175.907476845722783

  ==> Basis Set <==

  Basis Set: AUG-CC-PVTZ
    Blend: AUG-CC-PVTZ
    Number of shells: 48
    Number of basis function: 150
    Number of Cartesian functions: 177
    Spherical Harmonics?: true
    Max angular momentum: 3

  ==> DFJKGrad: Density-Fitted SCF Gradients <==

    Gradient:                    1
    J tasked:                  Yes
    K tasked:                  Yes
    wK tasked:                 Yes
    Omega:               2.000E-01
    OpenMP threads:              1
    Integrals threads:           1
    Memory [MiB]:             7152
    Schwarz Cutoff:          0E+00
    Fitting Condition:       1E-10

   => Auxiliary Basis Set <=

  Basis Set: (AUG-CC-PVTZ AUX)
    Blend: AUG-CC-PVTZ-JKFIT
    Number of shells: 126
    Number of basis function: 438
    Number of Cartesian functions: 540
    Spherical Harmonics?: true
    Max angular momentum: 4

  ==> DFT Potential <==

   => Composite Functional: WB97X-D <= 

    wB97X-D Hyb-GGA Exchange-Correlation Functional

    J.-D. Chai and M. Head-Gordon, Phys. Chem. Chem. Phys. 10, 6615 (2008)

    Deriv               =              1
    GGA                 =           TRUE
    Meta                =          FALSE

    Exchange Hybrid     =           TRUE
    MP2 Hybrid          =          FALSE

   => Exchange-Correlation Functionals <=

    1.0000   wB97D range-separated functional

   => Exact (HF) Exchange <=

    0.7780            HF,LR [omega = 0.2000]
    0.2220               HF 

   => Molecular Quadrature <=

    Radial Scheme          =       TREUTLER
    Pruning Scheme         =           NONE
    Nuclear Scheme         =       TREUTLER

    BS radius alpha        =              1
    Pruning alpha          =              1
    Radial Points          =             99
    Spherical Points       =            590
    Total Points           =         169929
    Total Blocks           =           1386
    Max Points             =            256
    Max Functions          =            150
    Weights Tolerance      =       1.00E-15


  -Total Gradient:
     Atom            X                  Y                   Z
    ------   -----------------  -----------------  -----------------
       1        0.000094953833     0.000060770993     0.000000000000
       2        0.000023656631    -0.000113801579     0.000000000000
       3       -0.000093459502     0.000069131419     0.000000000000


*** tstop() called on c2-18.compute.lan at Tue Feb  2 15:16:56 2021
Module time:
	user time   =      19.53 seconds =       0.33 minutes
	system time =       0.10 seconds =       0.00 minutes
	total time  =         20 seconds =       0.33 minutes
Total time:
	user time   =    1552.01 seconds =      25.87 minutes
	system time =      66.15 seconds =       1.10 minutes
	total time  =       2230 seconds =      37.17 minutes

         ----------------------------------------------------------
                                   FINDIF
                     R. A. King and Jonathon Misiewicz
         ---------------------------------------------------------

  Computing second-derivative from gradients using projected, 
  symmetry-adapted, cartesian coordinates.

  7 gradients passed in, including the reference geometry.
  Generating complete list of displacements from unique ones.


-------------------------------------------------------------


  ==> Harmonic Vibrational Analysis <==

  non-mass-weighted Hessian:       Symmetric? True   Hermitian? True   Lin Dep Dim?  6 (0)
  projection of translations (True) and rotations (True) removed 6 degrees of freedom (6)
  total projector:                 Symmetric? True   Hermitian? True   Lin Dep Dim?  6 (6)
  mass-weighted Hessian:           Symmetric? True   Hermitian? True   Lin Dep Dim?  6 (0)
  pre-proj  low-frequency mode:    0.0000i [cm^-1]
  pre-proj  low-frequency mode:    0.0000i [cm^-1]
  pre-proj  low-frequency mode:    0.0000i [cm^-1]
  pre-proj  low-frequency mode:    0.0000  [cm^-1]
  pre-proj  low-frequency mode:    0.0000  [cm^-1]
  pre-proj  low-frequency mode:    0.0000  [cm^-1]
  pre-proj  all modes:['0.0000i' '0.0000i' '0.0000i' '0.0000' '0.0000' '0.0000' '233.0285'
 '547.1608' '584.4848']
  projected mass-weighted Hessian: Symmetric? True   Hermitian? True   Lin Dep Dim?  6 (6)
  post-proj low-frequency mode:    0.0000i [cm^-1] (TR)
  post-proj low-frequency mode:    0.0000i [cm^-1] (TR)
  post-proj low-frequency mode:    0.0000i [cm^-1] (TR)
  post-proj low-frequency mode:    0.0000  [cm^-1] (TR)
  post-proj low-frequency mode:    0.0000  [cm^-1] (TR)
  post-proj low-frequency mode:    0.0000  [cm^-1] (TR)
  post-proj  all modes:['0.0000i' '0.0000i' '0.0000i' '0.0000' '0.0000' '0.0000' '233.0285'
 '547.1608' '584.4848']

  Vibration                       7                   8                   9           
  Freq [cm^-1]                 233.0285            547.1608            584.4848       
  Irrep                           Ap                  Ap                  Ap          
  Reduced mass [u]             31.9721             31.9721             31.9721        
  Force const [mDyne/A]         1.0229              5.6396              6.4353        
  Turning point v=0 [a0]        0.1271              0.0830              0.0803        
  RMS dev v=0 [a0 u^1/2]        0.5083              0.3317              0.3209        
  Char temp [K]                335.2761            787.2425            840.9435       
  ----------------------------------------------------------------------------------
      1   S               -0.42 -0.27  0.00    0.55  0.35 -0.00   -0.41  0.65 -0.00   
      2   S                0.51 -0.34 -0.00   -0.04 -0.53  0.00   -0.00 -0.45 -0.00   
      3   S               -0.10  0.61 -0.00   -0.50  0.18  0.00    0.41 -0.19 -0.00   

  ==> Thermochemistry Components <==

  Entropy, S
    Electronic S            1.377 [cal/(mol K)]        5.763 [J/(mol K)]       0.00219507 [mEh/K] (multiplicity = 2)
    Translational S        39.594 [cal/(mol K)]      165.660 [J/(mol K)]       0.06309659 [mEh/K] (mol. weight = 95.9162 [u], P = 101325.00 [Pa])
    Rotational S           25.240 [cal/(mol K)]      105.606 [J/(mol K)]       0.04022329 [mEh/K] (symmetry no. = 1)
    Vibrational S           2.883 [cal/(mol K)]       12.061 [J/(mol K)]       0.00459387 [mEh/K]
  Total S                  69.094 [cal/(mol K)]      289.091 [J/(mol K)]       0.11010882 [mEh/K]
  Correction S              0.000 [cal/(mol K)]        0.000 [J/(mol K)]       0.00000000 [mEh/K]

  Constant volume heat capacity, Cv
    Electronic Cv           0.000 [cal/(mol K)]        0.000 [J/(mol K)]       0.00000000 [mEh/K]
    Translational Cv        2.981 [cal/(mol K)]       12.472 [J/(mol K)]       0.00475022 [mEh/K]
    Rotational Cv           2.981 [cal/(mol K)]       12.472 [J/(mol K)]       0.00475022 [mEh/K]
    Vibrational Cv          4.001 [cal/(mol K)]       16.741 [J/(mol K)]       0.00637633 [mEh/K]
  Total Cv                  9.963 [cal/(mol K)]       41.684 [J/(mol K)]       0.01587676 [mEh/K]
  Correction Cv             0.000 [cal/(mol K)]        0.000 [J/(mol K)]       0.00000000 [mEh/K]

  Constant pressure heat capacity, Cp
    Electronic Cp           0.000 [cal/(mol K)]        0.000 [J/(mol K)]       0.00000000 [mEh/K]
    Translational Cp        4.968 [cal/(mol K)]       20.786 [J/(mol K)]       0.00791703 [mEh/K]
    Rotational Cp           2.981 [cal/(mol K)]       12.472 [J/(mol K)]       0.00475022 [mEh/K]
    Vibrational Cp          4.001 [cal/(mol K)]       16.741 [J/(mol K)]       0.00637633 [mEh/K]
  Total Cp                 11.950 [cal/(mol K)]       49.999 [J/(mol K)]       0.01904357 [mEh/K]
  Correction Cp             0.000 [cal/(mol K)]        0.000 [J/(mol K)]       0.00000000 [mEh/K]

  ==> Thermochemistry Energy Analysis <==

  Raw electronic energy, E0
  Total E0, Electronic energy at well bottom at 0 [K]                -1194.69047315 [Eh]

  Zero-point energy, ZPE_vib = Sum_i nu_i / 2
    Electronic ZPE          0.000 [kcal/mol]        0.000 [kJ/mol]       0.00000000 [Eh]
    Translational ZPE       0.000 [kcal/mol]        0.000 [kJ/mol]       0.00000000 [Eh]
    Rotational ZPE          0.000 [kcal/mol]        0.000 [kJ/mol]       0.00000000 [Eh]
    Vibrational ZPE         1.951 [kcal/mol]        8.163 [kJ/mol]       0.00310896 [Eh]         682.337 [cm^-1]
  Correction ZPE            1.951 [kcal/mol]        8.163 [kJ/mol]       0.00310896 [Eh]         682.337 [cm^-1]
  Total ZPE, Electronic energy at 0 [K]                              -1194.68736420 [Eh]

  Thermal Energy, E (includes ZPE)
    Electronic E            0.000 [kcal/mol]        0.000 [kJ/mol]       0.00000000 [Eh]
    Translational E         0.889 [kcal/mol]        3.718 [kJ/mol]       0.00141628 [Eh]
    Rotational E            0.889 [kcal/mol]        3.718 [kJ/mol]       0.00141628 [Eh]
    Vibrational E           2.497 [kcal/mol]       10.449 [kJ/mol]       0.00397992 [Eh]
  Correction E              4.275 [kcal/mol]       17.886 [kJ/mol]       0.00681247 [Eh]
  Total E, Electronic energy at  298.15 [K]                          -1194.68366068 [Eh]

  Enthalpy, H_trans = E_trans + k_B * T
    Electronic H            0.000 [kcal/mol]        0.000 [kJ/mol]       0.00000000 [Eh]
    Translational H         1.481 [kcal/mol]        6.197 [kJ/mol]       0.00236046 [Eh]
    Rotational H            0.889 [kcal/mol]        3.718 [kJ/mol]       0.00141628 [Eh]
    Vibrational H           2.497 [kcal/mol]       10.449 [kJ/mol]       0.00397992 [Eh]
  Correction H              4.867 [kcal/mol]       20.365 [kJ/mol]       0.00775666 [Eh]
  Total H, Enthalpy at  298.15 [K]                                   -1194.68271650 [Eh]

  Gibbs free energy, G = H - T * S
    Electronic G           -0.411 [kcal/mol]       -1.718 [kJ/mol]      -0.00065446 [Eh]
    Translational G       -10.324 [kcal/mol]      -43.194 [kJ/mol]      -0.01645179 [Eh]
    Rotational G           -6.637 [kcal/mol]      -27.768 [kJ/mol]      -0.01057630 [Eh]
    Vibrational G           1.638 [kcal/mol]        6.853 [kJ/mol]       0.00261025 [Eh]
  Correction G            -15.733 [kcal/mol]      -65.827 [kJ/mol]      -0.02507229 [Eh]
  Total G, Free enthalpy at  298.15 [K]                              -1194.71554544 [Eh]

    Psi4 stopped on: Tuesday, 02 February 2021 03:16PM
    Psi4 wall time for execution: 0:37:10.17

*** Psi4 exiting successfully. Buy a developer a beer!
