
    -----------------------------------------------------------------------
          Psi4: An Open-Source Ab Initio Electronic Structure Package
                               Psi4 1.3.2 release

                         Git: Rev {HEAD} ecbda83 


    R. M. Parrish, L. A. Burns, D. G. A. Smith, A. C. Simmonett,
    A. E. DePrince III, E. G. Hohenstein, U. Bozkaya, A. Yu. Sokolov,
    R. Di Remigio, R. M. Richard, J. F. Gonthier, A. M. James,
    H. R. McAlexander, A. Kumar, M. Saitow, X. Wang, B. P. Pritchard,
    P. Verma, H. F. Schaefer III, K. Patkowski, R. A. King, E. F. Valeev,
    F. A. Evangelista, J. M. Turney, T. D. Crawford, and C. D. Sherrill,
    J. Chem. Theory Comput. 13(7) pp 3185--3197 (2017).
    (doi: 10.1021/acs.jctc.7b00174)


                         Additional Contributions by
    P. Kraus, H. Kruse, M. H. Lechner, M. C. Schieber, R. A. Shaw,
    A. Alenaizan, R. Galvelis, Z. L. Glick, S. Lehtola, and J. P. Misiewicz

    -----------------------------------------------------------------------


    Psi4 started on: Friday, 05 March 2021 01:59PM

    Process ID: 119262
    Host:       d3-6.compute.lan
    PSIDATADIR: /apps/gb/PSI4/1.3.2/share/psi4
    Memory:     500.0 MiB
    Threads:    12
    
  ==> Input File <==

--------------------------------------------------------------------------
memory 46 GB

basis jerome {
assign pot
assign S aug-cc-pV(T+d)Z

[pot]
spherical
****
 K  0
 S 23 1.00
    2.709796E+07     4.136110E-07
    3.592856E+06     3.860330E-06
    7.222638E+05     2.394640E-05
    1.833976E+05     1.157540E-04
    5.464812E+04     4.697010E-04
    1.830913E+04     1.673720E-03
    6.712501E+03     5.370450E-03
    2.643719E+03     1.572510E-02
    1.103835E+03     4.193360E-02
    4.836777E+02     9.987620E-02
    2.206245E+02     2.019680E-01
    1.041117E+02     3.146270E-01
    5.052749E+01     3.107540E-01
    2.485247E+01     1.421920E-01
    1.128102E+01     1.658490E-02
    5.510166E+00    -2.759760E-04
    2.706914E+00     5.158310E-04
    1.122807E+00    -2.268950E-04
    5.236385E-01     6.652980E-05
    2.355180E-01    -3.685150E-05
    4.157977E-02     1.925250E-05
    2.555456E-02    -2.108420E-05
    1.471495E-02     7.044600E-06
 S 23 1.00
    2.709796E+07    -1.188290E-07
    3.592856E+06    -1.108550E-06
    7.222638E+05    -6.881230E-06
    1.833976E+05    -3.324150E-05
    5.464812E+04    -1.350850E-04
    1.830913E+04    -4.814570E-04
    6.712501E+03    -1.552620E-03
    2.643719E+03    -4.578330E-03
    1.103835E+03    -1.247930E-02
    4.836777E+02    -3.094650E-02
    2.206245E+02    -6.855530E-02
    1.041117E+02    -1.268300E-01
    5.052749E+01    -1.745020E-01
    2.485247E+01    -9.089560E-02
    1.128102E+01     2.506960E-01
    5.510166E+00     5.589630E-01
    2.706914E+00     3.284370E-01
    1.122807E+00     3.392170E-02
    5.236385E-01    -2.100280E-03
    2.355180E-01     1.383960E-03
    4.157977E-02    -5.315630E-04
    2.555456E-02     5.770310E-04
    1.471495E-02    -1.931440E-04
 S 23 1.00
    2.709796E+07     3.917470E-08
    3.592856E+06     3.650640E-07
    7.222638E+05     2.269460E-06
    1.833976E+05     1.094290E-05
    5.464812E+04     4.457360E-05
    1.830913E+04     1.584480E-04
    6.712501E+03     5.128440E-04
    2.643719E+03     1.507690E-03
    1.103835E+03     4.136940E-03
    4.836777E+02     1.024690E-02
    2.206245E+02     2.306520E-02
    1.041117E+02     4.308900E-02
    5.052749E+01     6.238120E-02
    2.485247E+01     3.270420E-02
    1.128102E+01    -1.021980E-01
    5.510166E+00    -3.317970E-01
    2.706914E+00    -3.030100E-01
    1.122807E+00     3.098410E-01
    5.236385E-01     6.732700E-01
    2.355180E-01     2.812200E-01
    4.157977E-02     9.376240E-03
    2.555456E-02    -6.955720E-03
    1.471495E-02     2.069460E-03
 S 23 1.00
    2.709796E+07    -7.564440E-09
    3.592856E+06    -7.055390E-08
    7.222638E+05    -4.380820E-07
    1.833976E+05    -2.115540E-06
    5.464812E+04    -8.601300E-06
    1.830913E+04    -3.064440E-05
    6.712501E+03    -9.892550E-05
    2.643719E+03    -2.917760E-04
    1.103835E+03    -7.977860E-04
    4.836777E+02    -1.985820E-03
    2.206245E+02    -4.449740E-03
    1.041117E+02    -8.390260E-03
    5.052749E+01    -1.206000E-02
    2.485247E+01    -6.568410E-03
    1.128102E+01     2.061430E-02
    5.510166E+00     6.770060E-02
    2.706914E+00     6.639570E-02
    1.122807E+00    -8.237770E-02
    5.236385E-01    -1.727150E-01
    2.355180E-01    -2.310290E-01
    4.157977E-02     5.090040E-01
    2.555456E-02     3.472180E-01
    1.471495E-02     2.809620E-01
 S 1 1.00
    2.555456E-02     1.000000E+00
 S 1 1.00
    1.471495E-02     1.000000E+00
 S 1 1.00
    8.470000E-03     1.000000E+00
 P 16 1.00
    9.533309E+03     4.212010E-05
    1.852081E+03     5.068300E-04
    5.464251E+02     3.311700E-03
    1.966947E+02     1.536840E-02
    7.964112E+01     5.457060E-02
    3.488324E+01     1.473880E-01
    1.604479E+01     2.879240E-01
    7.575632E+00     3.750810E-01
    3.672548E+00     2.545160E-01
    1.771130E+00     6.059280E-02
    8.515199E-01     2.508370E-03
    4.016017E-01     6.688870E-04
    1.851933E-01    -1.486150E-04
    5.523390E-02     4.936010E-05
    2.431085E-02    -3.513850E-05
    1.080339E-02     1.171450E-05
 P 16 1.00
    9.533309E+03    -1.280760E-05
    1.852081E+03    -1.547870E-04
    5.464251E+02    -1.010940E-03
    1.966947E+02    -4.738330E-03
    7.964112E+01    -1.703260E-02
    3.488324E+01    -4.754130E-02
    1.604479E+01    -9.560810E-02
    7.575632E+00    -1.337000E-01
    3.672548E+00    -7.425060E-02
    1.771130E+00     1.646810E-01
    8.515199E-01     4.057630E-01
    4.016017E-01     4.113600E-01
    1.851933E-01     1.734240E-01
    5.523390E-02     1.253640E-02
    2.431085E-02    -3.267140E-03
    1.080339E-02     1.039680E-03
 P 16 1.00
    9.533309E+03     1.764010E-06
    1.852081E+03     2.124880E-05
    5.464251E+02     1.392500E-04
    1.966947E+02     6.509140E-04
    7.964112E+01     2.349940E-03
    3.488324E+01     6.547470E-03
    1.604479E+01     1.326270E-02
    7.575632E+00     1.848520E-02
    3.672548E+00     1.025530E-02
    1.771130E+00    -2.652150E-02
    8.515199E-01    -6.086460E-02
    4.016017E-01    -7.474220E-02
    1.851933E-01    -4.870880E-02
    5.523390E-02     2.245720E-01
    2.431085E-02     5.839280E-01
    1.080339E-02     2.980960E-01
 P 1 1.00
    5.523390E-02     1.000000E+00
 P 1 1.00
    1.080339E-02     1.000000E+00
 P 1 1.00
    4.800000E-03     1.000000E+00
 D 6 1.00
    5.670903E+00     8.285900E-03
    1.459042E+00     2.332530E-02
    5.431827E-01     4.878080E-02
    1.346875E-01     7.349020E-02
    5.516013E-02     2.387630E-01
    1.501876E-02     8.253200E-01
 D 1 1.00
    5.516013E-02     1.000000E+00
 D 1 1.00
    1.501876E-02     1.000000E+00
 D 1 1.00
    6.010000E-03     1.000000E+00
 F 1 1.00
    8.493750E-02     1.000000E+00
 F 1 1.00
    3.398000E-02     1.000000E+00
 ****
}

molecule  {
0 2
S   -1.196308690178    1.137789164323    0.000000000000
S   -1.195991888206   -1.137659476743    0.000000000000
K    1.963026910424   -0.000106416481    0.000000000000
}
set {
basis jerome
reference uhf
g_convergence gau_verytight
e_convergence 10
scf_type pk
freeze_core true
geom_maxiter 100
}

set ccenergy {
e_convergence 10
r_convergence 10
}

e = energy('ccsd(t)')

print_out('Stephenergy {}'.format(e))

--------------------------------------------------------------------------

  Memory set to  42.841 GiB by Python driver.

*** tstart() called on d3-6.compute.lan
*** at Fri Mar  5 13:59:20 2021

   => Loading Basis Set <=

    Name: JEROME
    Role: ORBITAL
    Keyword: BASIS
    atoms 1-2 entry S          line   928 file /apps/gb/PSI4/1.3.2/share/psi4/basis/aug-cc-pv_tpd_z.gbs 
    atoms 3   entry K          line     5 inputblock pot 


         ---------------------------------------------------------
                                   SCF
               by Justin Turney, Rob Parrish, Andy Simmonett
                          and Daniel G. A. Smith
                              UHF Reference
                       12 Threads,  43869 MiB Core
         ---------------------------------------------------------

  ==> Geometry <==

    Molecular point group: cs
    Full point group: Cs

    Geometry (in Angstrom), charge = 0, multiplicity = 2:

       Center              X                  Y                   Z               Mass       
    ------------   -----------------  -----------------  -----------------  -----------------
         S           -1.196308690178     1.137789164323     0.000000000000    31.972071174400
         S           -1.195991888206    -1.137659476743     0.000000000000    31.972071174400
         K            1.963026910424    -0.000106416481     0.000000000000    38.963706486400

  Running in cs symmetry.

  Rotational constants: A =      0.20367  B =      0.06976  C =      0.05196 [cm^-1]
  Rotational constants: A =   6105.79706  B =   2091.49431  C =   1557.86091 [MHz]
  Nuclear repulsion =  155.353863164333319

  Charge       = 0
  Multiplicity = 2
  Electrons    = 51
  Nalpha       = 26
  Nbeta        = 25

  ==> Algorithm <==

  SCF Algorithm Type is PK.
  DIIS enabled.
  MOM disabled.
  Fractional occupation disabled.
  Guess Type is SAD.
  Energy threshold   = 1.00e-10
  Density threshold  = 1.00e-08
  Integral threshold = 0.00e+00

  ==> Primary Basis <==

  Basis Set: JEROME
    Blend: AUG-CC-PV(T+D)Z + POT
    Number of shells: 53
    Number of basis function: 169
    Number of Cartesian functions: 199
    Spherical Harmonics?: true
    Max angular momentum: 3

  ==> Pre-Iterations <==

   -------------------------------------------------------
    Irrep   Nso     Nmo     Nalpha   Nbeta   Ndocc  Nsocc
   -------------------------------------------------------
     A'       111     111       0       0       0       0
     A"        58      58       0       0       0       0
   -------------------------------------------------------
    Total     169     169      26      25      25       1
   -------------------------------------------------------

  ==> Integral Setup <==

  Using in-core PK algorithm.
   Calculation information:
      Number of atoms:                   3
      Number of AO shells:              53
      Number of primitives:            287
      Number of atomic orbitals:       199
      Number of basis functions:       169

      Integral cutoff                 1.00e-12
      Number of threads:                12

  Performing in-core PK
  Using 206367590 doubles for integral storage.
  We computed 1577764 shell quartets total.
  Whereas there are 1024596 unique shell quartets.
    53.99 percent of shell quartets recomputed by reordering.

  ==> DiskJK: Disk-Based J/K Matrices <==

    J tasked:                  Yes
    K tasked:                  Yes
    wK tasked:                  No
    Memory [MiB]:            32901
    Schwarz Cutoff:          1E-12

    OpenMP threads:             12

  Minimum eigenvalue in the overlap matrix is 3.7117126316E-04.
  Using Symmetric Orthogonalization.

  SCF Guess: Superposition of Atomic Densities via on-the-fly atomic UHF.

  ==> Iterations <==

                        Total Energy        Delta E     RMS |[F,P]|

   @UHF iter SAD: -1393.26860752965399   -1.39327e+03   0.00000e+00 
   @UHF iter   1: -1394.24879663635511   -9.80189e-01   1.93317e-03 DIIS
   @UHF iter   2: -1394.28556072175093   -3.67641e-02   6.82545e-04 DIIS
   @UHF iter   3: -1394.28953503070124   -3.97431e-03   2.09434e-04 DIIS
   @UHF iter   4: -1394.29052230723482   -9.87277e-04   9.26338e-05 DIIS
   @UHF iter   5: -1394.29072917101803   -2.06864e-04   2.52014e-05 DIIS
   @UHF iter   6: -1394.29075062927041   -2.14583e-05   7.69712e-06 DIIS
   @UHF iter   7: -1394.29075312413738   -2.49487e-06   3.15315e-06 DIIS
   @UHF iter   8: -1394.29075364796518   -5.23828e-07   1.69154e-06 DIIS
   @UHF iter   9: -1394.29075383409509   -1.86130e-07   1.15952e-06 DIIS
   @UHF iter  10: -1394.29075393546873   -1.01374e-07   8.32860e-07 DIIS
   @UHF iter  11: -1394.29075399971362   -6.42449e-08   6.27546e-07 DIIS
   @UHF iter  12: -1394.29075405662297   -5.69094e-08   3.66309e-07 DIIS
   @UHF iter  13: -1394.29075408305971   -2.64367e-08   1.72813e-07 DIIS
   @UHF iter  14: -1394.29075408640983   -3.35012e-09   1.47543e-07 DIIS
   @UHF iter  15: -1394.29075408812014   -1.71030e-09   1.51644e-07 DIIS
   @UHF iter  16: -1394.29075408655444    1.56570e-09   1.44480e-07 DIIS
   @UHF iter  17: -1394.29075407905111    7.50333e-09   9.29724e-08 DIIS
   @UHF iter  18: -1394.29075407568143    3.36968e-09   3.78407e-08 DIIS
   @UHF iter  19: -1394.29075407545838    2.23054e-10   1.40019e-08 DIIS
   @UHF iter  20: -1394.29075407545770    6.82121e-13   6.95873e-09 DIIS
  Energy and wave function converged.


  ==> Post-Iterations <==

   @Spin Contamination Metric:   4.300969029E-02
   @S^2 Expected:                7.500000000E-01
   @S^2 Observed:                7.930096903E-01
   @S   Expected:                5.000000000E-01
   @S   Observed:                5.000000000E-01

    Orbital Energies [Eh]
    ---------------------

    Alpha Occupied:                                                       

       1Ap  -133.560669     2Ap   -91.920500     3Ap   -91.920476  
       4Ap   -14.516913     1App  -11.546916     5Ap   -11.546854  
       6Ap   -11.546774     7Ap    -8.915800     8Ap    -8.915703  
       2App   -6.604876     3App   -6.604847     9Ap    -6.594221  
      10Ap    -6.594081    11Ap    -6.592841    12Ap    -6.592816  
      13Ap    -1.774767     4App   -0.983762    14Ap    -0.982617  
      15Ap    -0.980848    16Ap    -0.911810    17Ap    -0.779760  
       5App   -0.401348    18Ap    -0.379930    19Ap    -0.372038  
       6App   -0.316739    20Ap    -0.280801  

    Alpha Virtual:                                                        

      21Ap    -0.019962     7App    0.002186    22Ap     0.002572  
      23Ap     0.005680    24Ap     0.016487     8App    0.017141  
      25Ap     0.017236     9App    0.019903    26Ap     0.020726  
      27Ap     0.022187    10App    0.022933    28Ap     0.028775  
      29Ap     0.032870    30Ap     0.051064    11App    0.051116  
      31Ap     0.055009    12App    0.059027    32Ap     0.061780  
      13App    0.073645    33Ap     0.073771    34Ap     0.088207  
      35Ap     0.098361    36Ap     0.104746    37Ap     0.124417  
      14App    0.125641    38Ap     0.127213    39Ap     0.128922  
      15App    0.130070    16App    0.133228    40Ap     0.134817  
      41Ap     0.151425    17App    0.152383    42Ap     0.153697  
      43Ap     0.156430    18App    0.167915    44Ap     0.174021  
      19App    0.177578    20App    0.186539    45Ap     0.186630  
      46Ap     0.207880    47Ap     0.217993    21App    0.233431  
      48Ap     0.242647    49Ap     0.269055    50Ap     0.304384  
      51Ap     0.311147    22App    0.330335    52Ap     0.348205  
      53Ap     0.367712    23App    0.375549    24App    0.378692  
      54Ap     0.381708    25App    0.386205    55Ap     0.387242  
      56Ap     0.390856    26App    0.393606    27App    0.407110  
      57Ap     0.409698    58Ap     0.424249    59Ap     0.427975  
      60Ap     0.440241    28App    0.449231    61Ap     0.455298  
      29App    0.460464    30App    0.460962    62Ap     0.489422  
      63Ap     0.500145    64Ap     0.528592    31App    0.662116  
      32App    0.704523    33App    0.714580    65Ap     0.722013  
      66Ap     0.739823    67Ap     0.754644    68Ap     0.770866  
      69Ap     0.805801    34App    0.808033    70Ap     0.811121  
      35App    0.839822    71Ap     0.848784    72Ap     0.862002  
      36App    0.864323    37App    0.896537    73Ap     0.913618  
      74Ap     0.916112    75Ap     0.944099    76Ap     0.968346  
      77Ap     0.978902    38App    1.009475    39App    1.032554  
      78Ap     1.045420    79Ap     1.059409    40App    1.119381  
      80Ap     1.129256    81Ap     1.156824    41App    1.169299  
      82Ap     1.181210    42App    1.339087    83Ap     1.369708  
      84Ap     1.388972    85Ap     1.643072    43App    2.001521  
      86Ap     2.027911    44App    2.048528    87Ap     2.060828  
      88Ap     2.061792    45App    2.066655    89Ap     2.196441  
      46App    2.203187    90Ap     2.247010    91Ap     2.298169  
      47App    2.350860    92Ap     2.352695    93Ap     2.375951  
      48App    2.415918    49App    2.418500    94Ap     2.420681  
      95Ap     2.446466    96Ap     2.458039    50App    2.461629  
      51App    2.500431    52App    2.503256    97Ap     2.524345  
      53App    2.532840    98Ap     2.556101    99Ap     2.605381  
     100Ap     2.657212   101Ap     2.690646    54App    2.726931  
     102Ap     2.769512   103Ap     3.650623   104Ap     4.786871  
     105Ap     5.702343    55App    7.396676   106Ap     7.408334  
      56App    7.422437   107Ap     7.424913    57App    7.425301  
     108Ap     7.437384    58App    7.478191   109Ap     7.495814  
     110Ap     7.597331   111Ap     7.613806  

    Beta Occupied:                                                        

       1Ap  -133.560693     2Ap   -91.914735     3Ap   -91.914714  
       4Ap   -14.516945     1App  -11.546958     5Ap   -11.546886  
       6Ap   -11.546805     7Ap    -8.909537     8Ap    -8.909412  
       9Ap    -6.591364    10Ap    -6.591217    11Ap    -6.589184  
      12Ap    -6.589161     2App   -6.579618     3App   -6.579596  
      13Ap    -1.774940     4App   -0.983966    14Ap    -0.982751  
      15Ap    -0.980708    16Ap    -0.865866    17Ap    -0.708733  
      18Ap    -0.367873    19Ap    -0.362594    20Ap    -0.267745  
       5App   -0.263889  

    Beta Virtual:                                                         

      21Ap    -0.019993     6App    0.002227    22Ap     0.002586  
      23Ap     0.005652    24Ap     0.016475     7App    0.016807  
      25Ap     0.017236     8App    0.019953    26Ap     0.020755  
      27Ap     0.022256     9App    0.023064    28Ap     0.028778  
      29Ap     0.032677    10App    0.037168    30Ap     0.051014  
      11App    0.055406    31Ap     0.055495    12App    0.059616  
      32Ap     0.061711    13App    0.073836    33Ap     0.074180  
      34Ap     0.087502    35Ap     0.102457    36Ap     0.104446  
      37Ap     0.124960    14App    0.125690    38Ap     0.127982  
      39Ap     0.128737    15App    0.129887    16App    0.134796  
      40Ap     0.134847    41Ap     0.151430    42Ap     0.153705  
      43Ap     0.159912    17App    0.162228    44Ap     0.173625  
      18App    0.174225    19App    0.181840    20App    0.187086  
      45Ap     0.190151    46Ap     0.207696    47Ap     0.218394  
      21App    0.233481    48Ap     0.243237    49Ap     0.267751  
      50Ap     0.309528    51Ap     0.313132    22App    0.347628  
      52Ap     0.350309    53Ap     0.371173    54Ap     0.382692  
      23App    0.384224    24App    0.386593    25App    0.387286  
      55Ap     0.390769    56Ap     0.391688    26App    0.394887  
      27App    0.406761    57Ap     0.412501    58Ap     0.427802  
      59Ap     0.430280    60Ap     0.443445    61Ap     0.459609  
      28App    0.466518    29App    0.466971    30App    0.469230  
      62Ap     0.490295    63Ap     0.503443    64Ap     0.528523  
      31App    0.694241    65Ap     0.728608    32App    0.734986  
      33App    0.738186    66Ap     0.745343    67Ap     0.755052  
      68Ap     0.785063    69Ap     0.809248    34App    0.826838  
      70Ap     0.829720    71Ap     0.864589    35App    0.874261  
      72Ap     0.884761    36App    0.899143    37App    0.903755  
      73Ap     0.918649    74Ap     0.921014    75Ap     0.946958  
      76Ap     0.979594    77Ap     0.988918    38App    1.021479  
      39App    1.042607    78Ap     1.051662    79Ap     1.062107  
      40App    1.131870    80Ap     1.135603    81Ap     1.156297  
      41App    1.175498    82Ap     1.185185    42App    1.353368  
      83Ap     1.371302    84Ap     1.398950    85Ap     1.659497  
      43App    2.017856    86Ap     2.040848    44App    2.064981  
      87Ap     2.066648    88Ap     2.076006    45App    2.083107  
      89Ap     2.198559    46App    2.221301    90Ap     2.248702  
      91Ap     2.301069    92Ap     2.364895    47App    2.367776  
      93Ap     2.381486    48App    2.430880    94Ap     2.439085  
      49App    2.452620    95Ap     2.456159    96Ap     2.481009  
      50App    2.489154    51App    2.524636    52App    2.529119  
      97Ap     2.541039    53App    2.550357    98Ap     2.561815  
      99Ap     2.611945   100Ap     2.660264   101Ap     2.695022  
      54App    2.748958   102Ap     2.773119   103Ap     3.654935  
     104Ap     4.798234   105Ap     5.713057    55App    7.403031  
     106Ap     7.414574    56App    7.428931   107Ap     7.431631  
      57App    7.432014   108Ap     7.438908    58App    7.484378  
     109Ap     7.496709   110Ap     7.599462   111Ap     7.615557  

    Final Occupation by Irrep:
             Ap   App 
    DOCC [    20,    5 ]
    SOCC [     0,    1 ]

  @UHF Final Energy: -1394.29075407545770

   => Energetics <=

    Nuclear Repulsion Energy =            155.3538631643333190
    One-Electron Energy =               -2235.7046385878302317
    Two-Electron Energy =                 686.0600213480391858
    Total Energy =                      -1394.2907540754576985

  UHF NO Occupations:
  HONO-2 :   20 Ap 1.9975738
  HONO-1 :    5App 1.9836472
  HONO-0 :    6App 1.0000000
  LUNO+0 :    7App 0.0163528
  LUNO+1 :   21 Ap 0.0024262
  LUNO+2 :   22 Ap 0.0022016
  LUNO+3 :   23 Ap 0.0003016


Computation Completed


Properties will be evaluated at   0.000000,   0.000000,   0.000000 [a0]

Properties computed using the SCF density matrix

  Nuclear Dipole Moment: [e a0]
     X:    -1.8506      Y:     0.0001      Z:     0.0000

  Electronic Dipole Moment: [e a0]
     X:     6.6399      Y:    -0.0005      Z:     0.0000

  Dipole Moment: [e a0]
     X:     4.7893      Y:    -0.0004      Z:     0.0000     Total:     4.7893

  Dipole Moment: [D]
     X:    12.1732      Y:    -0.0011      Z:     0.0000     Total:    12.1732


*** tstop() called on d3-6.compute.lan at Fri Mar  5 14:00:28 2021
Module time:
	user time   =     265.84 seconds =       4.43 minutes
	system time =       4.22 seconds =       0.07 minutes
	total time  =         68 seconds =       1.13 minutes
Total time:
	user time   =     265.84 seconds =       4.43 minutes
	system time =       4.22 seconds =       0.07 minutes
	total time  =         68 seconds =       1.13 minutes
 MINTS: Wrapper to libmints.
   by Justin Turney

   Calculation information:
      Number of threads:                12
      Number of atoms:                   3
      Number of AO shells:              53
      Number of SO shells:              53
      Number of primitives:            287
      Number of atomic orbitals:       199
      Number of basis functions:       169

      Number of irreps:                  2
      Integral cutoff                 0.00e+00
      Number of functions per irrep: [ 111   58 ]

 OEINTS: Overlap, kinetic, potential, dipole, and quadrupole integrals
         stored in file 35.

      Computing two-electron integrals...done
      Computed 50971208 non-zero two-electron integrals.
        Stored in file 33.


*** tstart() called on d3-6.compute.lan
*** at Fri Mar  5 14:02:34 2021


	Wfn Parameters:
	--------------------
	Wavefunction         = CCSD_T
	Number of irreps     = 2
	Number of MOs        = 169
	Number of active MOs = 150
	AO-Basis             = NONE
	Semicanonical        = false
	Reference            = UHF
	Print Level          = 1

	IRREP	# MOs	# FZDC	# DOCC	# SOCC	# VIRT	# FZVR
	-----	-----	------	------	------	------	------
	 Ap	   111	    15	    5	    0	    91	    0
	 App	   58	    4	    1	    1	    52	    0
	Transforming integrals...
	IWL integrals will be deleted.
	(OO|OO)...
	Presorting SO-basis two-electron integrals.
	Sorting File: SO Ints (nn|nn) nbuckets = 1
	Transforming the one-electron integrals and constructing Fock matrices
	Starting AA/AB first half-transformation.
	Sorting AA/AB half-transformed integrals.
	Starting BB first half-transformation.
	Sorting BB half-transformed integrals.
	First half integral transformation complete.
	Starting AA second half-transformation.
	Starting AB second half-transformation.
	Starting BB second half-transformation.
	Two-electron integral transformation complete.
	(OO|OV)...
	Starting AA second half-transformation.
	Starting AB second half-transformation.
	Starting BB second half-transformation.
	Two-electron integral transformation complete.
	(OO|VV)...
	Starting AA second half-transformation.
	Starting AB second half-transformation.
	Starting BB second half-transformation.
	Two-electron integral transformation complete.
	(OV|OO)...
	Starting AA/AB first half-transformation.
	Sorting AA/AB half-transformed integrals.
	Starting BB first half-transformation.
	Sorting BB half-transformed integrals.
	First half integral transformation complete.
	Starting AA second half-transformation.
	Starting AB second half-transformation.
	Starting BB second half-transformation.
	Two-electron integral transformation complete.
	(OV|OV)...
	Starting AA second half-transformation.
	Starting AB second half-transformation.
	Starting BB second half-transformation.
	Two-electron integral transformation complete.
	(OV|VV)...
	Starting AA second half-transformation.
	Starting AB second half-transformation.
	Starting BB second half-transformation.
	Two-electron integral transformation complete.
	(VV|OO)...
	Starting AA/AB first half-transformation.
	Sorting AA/AB half-transformed integrals.
	Starting BB first half-transformation.
	Sorting BB half-transformed integrals.
	First half integral transformation complete.
	Starting AA second half-transformation.
	Starting AB second half-transformation.
	Starting BB second half-transformation.
	Two-electron integral transformation complete.
	(VV|OV)...
	Starting AA second half-transformation.
	Starting AB second half-transformation.
	Starting BB second half-transformation.
	Two-electron integral transformation complete.
	(VV|VV)...
	Starting AA second half-transformation.
	Starting AB second half-transformation.
	Starting BB second half-transformation.
	Two-electron integral transformation complete.
	Frozen core energy     =  -1519.22998610474519

	Size of irrep 0 of <AB|CD> integrals:     29.387 (MW) /    235.098 (MB)
	Size of irrep 1 of <AB|CD> integrals:     22.392 (MW) /    179.135 (MB)
	Total:                                    51.779 (MW) /    414.233 (MB)

	Size of irrep 0 of <ab|cd> integrals:     29.954 (MW) /    239.630 (MB)
	Size of irrep 1 of <ab|cd> integrals:     23.261 (MW) /    186.091 (MB)
	Total:                                    53.215 (MW) /    425.720 (MB)

	Size of irrep 0 of <Ab|Cd> integrals:    121.815 (MW) /    974.523 (MB)
	Size of irrep 1 of <Ab|Cd> integrals:     91.298 (MW) /    730.384 (MB)
	Total:                                   213.113 (MW) /   1704.907 (MB)

	Size of irrep 0 of <IA|BC> integrals:      6.141 (MW) /     49.125 (MB)
	Size of irrep 1 of <IA|BC> integrals:      4.183 (MW) /     33.465 (MB)
	Total:                                    10.324 (MW) /     82.590 (MB)

	Size of irrep 0 of <ia|bc> integrals:      5.634 (MW) /     45.070 (MB)
	Size of irrep 1 of <ia|bc> integrals:      3.434 (MW) /     27.472 (MB)
	Total:                                     9.068 (MW) /     72.542 (MB)

	Size of irrep 0 of <Ia|Bc> integrals:      6.192 (MW) /     49.534 (MB)
	Size of irrep 1 of <Ia|Bc> integrals:      4.271 (MW) /     34.169 (MB)
	Total:                                    10.463 (MW) /     83.703 (MB)

	Size of irrep 0 of <iA|bC> integrals:      5.596 (MW) /     44.766 (MB)
	Size of irrep 1 of <iA|bC> integrals:      3.354 (MW) /     26.830 (MB)
	Total:                                     8.950 (MW) /     71.597 (MB)

	Size of irrep 0 of tIjAb amplitudes:       0.298 (MW) /      2.384 (MB)
	Size of irrep 1 of tIjAb amplitudes:       0.143 (MW) /      1.147 (MB)
	Total:                                     0.441 (MW) /      3.531 (MB)

	Nuclear Rep. energy          =    155.35386316433332
	SCF energy                   =  -1394.29075407545770
	One-electron energy          =    -54.55013580419997
	Two-electron (AA) energy     =      5.93887388783082
	Two-electron (BB) energy     =      4.19600623814422
	Two-electron (AB) energy     =     14.00062454316652
	Two-electron energy          =     24.13550466914157
	Reference energy             =  -1394.29075407547043

*** tstop() called on d3-6.compute.lan at Fri Mar  5 14:04:36 2021
Module time:
	user time   =     371.02 seconds =       6.18 minutes
	system time =      31.11 seconds =       0.52 minutes
	total time  =        122 seconds =       2.03 minutes
Total time:
	user time   =     765.27 seconds =      12.75 minutes
	system time =      37.16 seconds =       0.62 minutes
	total time  =        316 seconds =       5.27 minutes
            **************************
            *                        *
            *        CCENERGY        *
            *                        *
            **************************

    Nuclear Rep. energy (wfn)     =  155.353863164333319
    SCF energy          (wfn)     = -1394.290754075457698
    Reference energy    (file100) = -1394.290754075470431

    Input parameters:
    -----------------
    Wave function   =     CCSD_T
    Reference wfn   =     UHF
    Brueckner       =     No
    Memory (Mbytes) =     46000.0
    Maxiter         =     50
    R_Convergence   =     1.0e-10
    E_Convergence   =     1.0e-10
    Restart         =     Yes
    DIIS            =     Yes
    AO Basis        =     NONE
    ABCD            =     NEW
    Cache Level     =     2
    Cache Type      =     LRU
    Print Level     =     1
    Num. of threads =     12
    # Amps to Print =     10
    Print MP2 Amps? =     No
    Analyze T2 Amps =     No
    Print Pair Ener =     No
    Local CC        =     No
    SCS-MP2         =     False
    SCSN-MP2        =     False
    SCS-CCSD        =     False

MP2 correlation energy -0.3529923289760427
                Solving CC Amplitude Equations
                ------------------------------
  Iter             Energy              RMS        T1Diag      D1Diag    New D1Diag    D2Diag
  ----     ---------------------    ---------   ----------  ----------  ----------   --------
     0        -0.352992328976043    0.000e+00    0.000000    0.000000    0.000000    0.000000
     1        -0.364730973590278    9.366e-02    0.018564    0.000000    0.000000    0.000000
     2        -0.376698944455558    3.043e-02    0.021008    0.000000    0.000000    0.000000
     3        -0.379544346598850    1.506e-02    0.025483    0.000000    0.000000    0.000000
     4        -0.379407388800237    4.046e-03    0.026767    0.000000    0.000000    0.000000
     5        -0.379366685165768    1.576e-03    0.027113    0.000000    0.000000    0.000000
     6        -0.379356967462738    6.881e-04    0.027206    0.000000    0.000000    0.000000
     7        -0.379352675428758    3.797e-04    0.027234    0.000000    0.000000    0.000000
     8        -0.379355241931472    2.212e-04    0.027240    0.000000    0.000000    0.000000
     9        -0.379359661564999    1.408e-04    0.027243    0.000000    0.000000    0.000000
    10        -0.379357364278599    8.568e-05    0.027248    0.000000    0.000000    0.000000
    11        -0.379357550734764    3.943e-05    0.027247    0.000000    0.000000    0.000000
    12        -0.379356815245870    1.956e-05    0.027248    0.000000    0.000000    0.000000
    13        -0.379356610626522    1.077e-05    0.027248    0.000000    0.000000    0.000000
    14        -0.379356725047430    6.653e-06    0.027248    0.000000    0.000000    0.000000
    15        -0.379356736984872    4.402e-06    0.027248    0.000000    0.000000    0.000000
    16        -0.379356736235862    2.478e-06    0.027248    0.000000    0.000000    0.000000
    17        -0.379356750546730    1.337e-06    0.027248    0.000000    0.000000    0.000000
    18        -0.379356747421688    5.882e-07    0.027248    0.000000    0.000000    0.000000
    19        -0.379356743425953    2.764e-07    0.027248    0.000000    0.000000    0.000000
    20        -0.379356743363482    1.681e-07    0.027248    0.000000    0.000000    0.000000
    21        -0.379356742788322    1.061e-07    0.027248    0.000000    0.000000    0.000000
    22        -0.379356742452594    6.877e-08    0.027248    0.000000    0.000000    0.000000
    23        -0.379356742359846    4.069e-08    0.027248    0.000000    0.000000    0.000000
    24        -0.379356742351538    2.443e-08    0.027248    0.000000    0.000000    0.000000
    25        -0.379356742410747    1.421e-08    0.027248    0.000000    0.000000    0.000000
    26        -0.379356742447254    9.324e-09    0.027248    0.000000    0.000000    0.000000
    27        -0.379356742447021    6.201e-09    0.027248    0.000000    0.000000    0.000000
    28        -0.379356742442701    4.229e-09    0.027248    0.000000    0.000000    0.000000
    29        -0.379356742425207    2.514e-09    0.027248    0.000000    0.000000    0.000000
    30        -0.379356742416677    1.199e-09    0.027248    0.000000    0.000000    0.000000
    31        -0.379356742421841    6.242e-10    0.027248    0.000000    0.000000    0.000000
    32        -0.379356742424661    3.385e-10    0.027248    0.000000    0.000000    0.000000
    33        -0.379356742425986    2.113e-10    0.027248    0.000000    0.000000    0.000000
    34        -0.379356742427099    1.486e-10    0.027248    0.000000    0.000000    0.000000
    35        -0.379356742427119    1.013e-10    0.027248    0.000000    0.000000    0.000000
    36        -0.379356742426596    6.381e-11    0.027248    0.000000    0.000000    0.000000

    Iterations converged.


    Largest TIA Amplitudes:
              5 106         0.0247410507
              2  47         0.0189990196
              5 102         0.0145746249
              6 101         0.0118459181
              3  31         0.0118236204
              5 107         0.0105374318
              5 117         0.0097184866
              5 115        -0.0094121805
              2  36         0.0092801723
              5 104        -0.0084197719

    Largest Tia Amplitudes:
              5 103         0.0290563566
              5 107         0.0271994884
              5 116        -0.0269895424
              5 118        -0.0186528043
              5 108         0.0163003086
              5 105         0.0159105048
              5  97        -0.0132798936
              3  31         0.0131843017
              1  14         0.0124682393
              2  47         0.0120247354

    Largest TIJAB Amplitudes:
      6   2 106  14         0.0120132678
      6   2 106  22        -0.0116802303
      4   2  31  22        -0.0105006068
      4   2  31  14         0.0103258253
      6   4 119  49         0.0098160271
      5   3 107  30        -0.0097446750
      4   2  46  22         0.0095498831
      5   2 117  44        -0.0092751856
      6   2 106  24        -0.0090756240
      6   2 106  29         0.0087255045

    Largest Tijab Amplitudes:
      5   2  95  22         0.0332065165
      5   2  95  14        -0.0298082742
      5   2  95  24         0.0284884075
      5   2  96  22        -0.0182028840
      5   2  95  29        -0.0176734421
      5   4  95  31         0.0167829262
      5   2  96  14         0.0162276045
      5   2  96  24        -0.0156260997
      5   2  95  17        -0.0135333771
      5   4  95  30         0.0132577051

    Largest TIjAb Amplitudes:
      2   5  14  95        -0.0424801074
      2   5  22  95         0.0416891669
      2   2  22  22        -0.0311435027
      2   5  24  95         0.0305735047
      2   2  14  22         0.0305397558
      2   2  14  14        -0.0272332567
      6   5 106  95         0.0269962662
      2   2  22  24        -0.0268428568
      2   2  14  24         0.0265106975
      2   2  22  14         0.0264155625

    SCF energy       (wfn)                    = -1394.290754075457698
    Reference energy (file100)                = -1394.290754075470431

    Opposite-spin MP2 correlation energy      =   -0.264021158643571
    Same-spin MP2 correlation energy          =   -0.088971170332471
    MP2 correlation energy                    =   -0.352992328976043
      * MP2 total energy                      = -1394.643746404446574

    Opposite-spin CCSD correlation energy     =   -0.297408280770294
    Same-spin CCSD correlation energy         =   -0.081948461656303
    CCSD correlation energy                   =   -0.379356742426596
      * CCSD total energy                     = -1394.670110817897012

            **************************
            *                        *
            *        CCTRIPLES       *
            *                        *
            **************************


    Wave function   =    CCSD_T
    Reference wfn   =      UHF

    Nuclear Rep. energy (wfn)                =  155.353863164333319
    SCF energy          (wfn)                = -1394.290754075457698
    Reference energy    (file100)            = -1394.290754075470431
    CCSD energy         (file100)            =   -0.379356742426596
    Total CCSD energy   (file100)            = -1394.670110817897012

    Number of ijk index combinations:
    Spin Case AAA:                                  35
    Spin Case BBB:                                  20
    Spin Case AAB:                                 126
    Spin Case ABB:                                 105
    AAA (T) energy                             =   -0.000543865355053
    BBB (T) energy                             =   -0.000731999057477
    AAB (T) energy                             =   -0.011438731635666
    ABB (T) energy                             =   -0.011628535800662
    (T) energy                                   =   -0.024343131848859
      * CCSD(T) total energy                     = -1394.694453949745821

Stephenergy -1394.6944539497458
    Psi4 stopped on: Friday, 05 March 2021 02:08PM
    Psi4 wall time for execution: 0:08:40.30

*** Psi4 exiting successfully. Buy a developer a beer!
