
    -----------------------------------------------------------------------
          Psi4: An Open-Source Ab Initio Electronic Structure Package
                               Psi4 1.4a2.dev191 

                         Git: Rev {master} 0ab5346 


    R. M. Parrish, L. A. Burns, D. G. A. Smith, A. C. Simmonett,
    A. E. DePrince III, E. G. Hohenstein, U. Bozkaya, A. Yu. Sokolov,
    R. Di Remigio, R. M. Richard, J. F. Gonthier, A. M. James,
    H. R. McAlexander, A. Kumar, M. Saitow, X. Wang, B. P. Pritchard,
    P. Verma, H. F. Schaefer III, K. Patkowski, R. A. King, E. F. Valeev,
    F. A. Evangelista, J. M. Turney, T. D. Crawford, and C. D. Sherrill,
    J. Chem. Theory Comput. 13(7) pp 3185--3197 (2017).
    (doi: 10.1021/acs.jctc.7b00174)


                         Additional Contributions by
    P. Kraus, H. Kruse, M. H. Lechner, M. C. Schieber, R. A. Shaw,
    A. Alenaizan, R. Galvelis, Z. L. Glick, S. Lehtola, and J. P. Misiewicz

    -----------------------------------------------------------------------


    Psi4 started on: Tuesday, 02 February 2021 11:28AM

    Process ID: 27623
    Host:       c1-4.compute.lan
    PSIDATADIR: /apps/gb/PSI4/1.4.0/share/psi4
    Memory:     500.0 MiB
    Threads:    1
    
  ==> Input File <==

--------------------------------------------------------------------------
memory 10 GB

molecule  {
-2 1
S
S 1 R1
S 1 R2 2 A1
R1 = 1.5
R2 = 1.5
A1 = 120.0
}

set {
reference uks
basis aug-cc-pvtz
}

optimize('wb97x-d')
--------------------------------------------------------------------------

  Memory set to   9.313 GiB by Python driver.
gradient() will perform analytic gradient computation.

*** tstart() called on c1-4.compute.lan
*** at Tue Feb  2 11:28:41 2021

   => Loading Basis Set <=

    Name: AUG-CC-PVTZ
    Role: ORBITAL
    Keyword: BASIS
    atoms 1-3 entry S          line   906 file /apps/gb/PSI4/1.4.0/share/psi4/basis/aug-cc-pvtz.gbs 

   => WB97X-D: Empirical Dispersion <=

    Chai and Head-Gordon Dispersion Correction
    Chai, J.-D.; Head-Gordon, M. (2010), J. Chem. Phys., 132: 6615-6620

        s6 =       1.000000


         ---------------------------------------------------------
                                   SCF
               by Justin Turney, Rob Parrish, Andy Simmonett
                          and Daniel G. A. Smith
                              UKS Reference
                        1 Threads,   9536 MiB Core
         ---------------------------------------------------------

  ==> Geometry <==

    Molecular point group: c2v
    Full point group: C2v

    Geometry (in Angstrom), charge = -2, multiplicity = 1:

       Center              X                  Y                   Z               Mass       
    ------------   -----------------  -----------------  -----------------  -----------------
         S            0.000000000000     0.000000000000    -0.500000000000    31.972071174400
         S            0.000000000000    -1.299038105677     0.250000000000    31.972071174400
         S            0.000000000000     1.299038105677     0.250000000000    31.972071174400

  Running in c2v symmetry.

  Rotational constants: A =      1.40603  B =      0.15623  C =      0.14060 [cm^-1]
  Rotational constants: A =  42151.70639  B =   4683.52293  C =   4215.17064 [MHz]
  Nuclear repulsion =  232.768004500367368

  Charge       = -2
  Multiplicity = 1
  Electrons    = 50
  Nalpha       = 25
  Nbeta        = 25

  ==> Algorithm <==

  SCF Algorithm Type is DF.
  DIIS enabled.
  MOM disabled.
  Fractional occupation disabled.
  Guess Type is SAD.
  Energy threshold   = 1.00e-08
  Density threshold  = 1.00e-08
  Integral threshold = 0.00e+00

  ==> Primary Basis <==

  Basis Set: AUG-CC-PVTZ
    Blend: AUG-CC-PVTZ
    Number of shells: 48
    Number of basis function: 150
    Number of Cartesian functions: 177
    Spherical Harmonics?: true
    Max angular momentum: 3

  ==> DFT Potential <==

   => Composite Functional: WB97X-D <= 

    wB97X-D Hyb-GGA Exchange-Correlation Functional

    J.-D. Chai and M. Head-Gordon, Phys. Chem. Chem. Phys. 10, 6615 (2008)

    Deriv               =              1
    GGA                 =           TRUE
    Meta                =          FALSE

    Exchange Hybrid     =           TRUE
    MP2 Hybrid          =          FALSE

   => Exchange-Correlation Functionals <=

    1.0000   wB97D range-separated functional

   => Exact (HF) Exchange <=

    0.7780            HF,LR [omega = 0.2000]
    0.2220               HF 

   => Molecular Quadrature <=

    Radial Scheme          =       TREUTLER
    Pruning Scheme         =           NONE
    Nuclear Scheme         =       TREUTLER

    BS radius alpha        =              1
    Pruning alpha          =              1
    Radial Points          =             75
    Spherical Points       =            302
    Total Points           =          65714
    Total Blocks           =            600
    Max Points             =            256
    Max Functions          =            150
    Weights Tolerance      =       1.00E-15

   => Loading Basis Set <=

    Name: (AUG-CC-PVTZ AUX)
    Role: JKFIT
    Keyword: DF_BASIS_SCF
    atoms 1-3 entry S          line   730 file /apps/gb/PSI4/1.4.0/share/psi4/basis/aug-cc-pvtz-jkfit.gbs 

  ==> Pre-Iterations <==

   -------------------------------------------------------
    Irrep   Nso     Nmo     Nalpha   Nbeta   Ndocc  Nsocc
   -------------------------------------------------------
     A1        54      54       0       0       0       0
     A2        22      22       0       0       0       0
     B1        29      29       0       0       0       0
     B2        45      45       0       0       0       0
   -------------------------------------------------------
    Total     150     150      25      25      25       0
   -------------------------------------------------------

  ==> Integral Setup <==

  ==> DiskDFJK: Density-Fitted J/K Matrices <==

    J tasked:                  Yes
    K tasked:                  Yes
    wK tasked:                 Yes
    Omega:               2.000E-01
    OpenMP threads:              1
    Integrals threads:           1
    Memory [MiB]:             6880
    Algorithm:                Core
    Integral Cache:           NONE
    Schwarz Cutoff:          1E-12
    Fitting Condition:       1E-10

   => Auxiliary Basis Set <=

  Basis Set: (AUG-CC-PVTZ AUX)
    Blend: AUG-CC-PVTZ-JKFIT
    Number of shells: 126
    Number of basis function: 438
    Number of Cartesian functions: 540
    Spherical Harmonics?: true
    Max angular momentum: 4

  Cached 100.0% of DFT collocation blocks in 0.265 [GiB].

  Minimum eigenvalue in the overlap matrix is 5.9779644928E-05.
  Using Symmetric Orthogonalization.

  SCF Guess: Superposition of Atomic Densities via on-the-fly atomic UHF.

  ==> Iterations <==

                           Total Energy        Delta E     RMS |[F,P]|

   @DF-UKS iter SAD: -1196.26024144926237   -1.19626e+03   0.00000e+00 
    Occupation by irrep:
             A1    A2    B1    B2 
    DOCC [    11,    2,    3,    9 ]
    SOCC [     0,    0,    0,    0 ]

   @DF-UKS iter   1: -1193.63031745949434    2.62992e+00   9.89717e-03 DIIS
    Occupation by irrep:
             A1    A2    B1    B2 
    DOCC [    11,    2,    4,    8 ]
    SOCC [     0,    0,    0,    0 ]

   @DF-UKS iter   2: -1192.12115201093161    1.50917e+00   1.79686e-02 DIIS
   @DF-UKS iter   3: -1193.91912136160909   -1.79797e+00   4.07725e-03 DIIS
   @DF-UKS iter   4: -1194.01270307652453   -9.35817e-02   1.11377e-03 DIIS
   @DF-UKS iter   5: -1194.02633786131355   -1.36348e-02   8.08195e-04 DIIS
   @DF-UKS iter   6: -1194.02953101369212   -3.19315e-03   4.55987e-04 DIIS
   @DF-UKS iter   7: -1194.03094916667669   -1.41815e-03   2.14598e-04 DIIS
   @DF-UKS iter   8: -1194.03148814697056   -5.38980e-04   8.51966e-05 DIIS
   @DF-UKS iter   9: -1194.03167200959024   -1.83863e-04   2.27950e-05 DIIS
   @DF-UKS iter  10: -1194.03171324942377   -4.12398e-05   1.43452e-05 DIIS
   @DF-UKS iter  11: -1194.03172579888451   -1.25495e-05   5.21698e-06 DIIS
   @DF-UKS iter  12: -1194.03172842660388   -2.62772e-06   1.40563e-06 DIIS
   @DF-UKS iter  13: -1194.03172855181811   -1.25214e-07   2.80980e-07 DIIS
   @DF-UKS iter  14: -1194.03172855427943   -2.46132e-09   6.62784e-08 DIIS
   @DF-UKS iter  15: -1194.03172855438834   -1.08912e-10   2.05067e-08 DIIS
   @DF-UKS iter  16: -1194.03172855439425   -5.91172e-12   6.98073e-09 DIIS
  Energy and wave function converged.


  ==> Post-Iterations <==

   @Spin Contamination Metric:   6.750155990E-14
   @S^2 Expected:                0.000000000E+00
   @S^2 Observed:                6.750155990E-14
   @S   Expected:                0.000000000E+00
   @S   Observed:                0.000000000E+00

    Orbital Energies [Eh]
    ---------------------

    Alpha Occupied:                                                       

       1A1   -88.692274     2A1   -88.652778     1B2   -88.652778  
       3A1    -7.738775     2B2    -7.689096     4A1    -7.688975  
       3B2    -5.689468     5A1    -5.679449     1B1    -5.676174  
       6A1    -5.638240     4B2    -5.637705     1A2    -5.629880  
       2B1    -5.629867     5B2    -5.628491     7A1    -5.628484  
       8A1    -0.754227     6B2    -0.548072     9A1    -0.250926  
       3B1    -0.205702    10A1    -0.190570     7B2    -0.144179  
       2A2    -0.016551     8B2     0.017273    11A1     0.059963  
       4B1     0.168730  

    Alpha Virtual:                                                        

       9B2     0.266926    12A1     0.272166    13A1     0.307035  
       3A2     0.332044    10B2     0.334722    14A1     0.337302  
       5B1     0.340339    11B2     0.354467     6B1     0.362606  
      15A1     0.388473    16A1     0.440656    12B2     0.457294  
      17A1     0.494669     7B1     0.511418    18A1     0.539846  
      13B2     0.543635     4A2     0.551225    14B2     0.565618  
      19A1     0.580898    15B2     0.605262     8B1     0.607929  
       5A2     0.613956    20A1     0.635133     9B1     0.653923  
      16B2     0.671607    21A1     0.671636     6A2     0.716413  
      22A1     0.732614    17B2     0.753689    10B1     0.758927  
      23A1     0.784753     7A2     0.818363    18B2     0.843257  
      19B2     0.851158    24A1     0.851595    11B1     0.858745  
      25A1     0.863793    26A1     0.888873    12B1     0.897733  
      20B2     0.924602     8A2     0.929086    21B2     0.974916  
      27A1     0.988509     9A2     0.993322    13B1     1.000788  
      28A1     1.011675    29A1     1.066495    22B2     1.093715  
      14B1     1.120614    23B2     1.136561    15B1     1.172515  
      30A1     1.190232    10A2     1.200414    24B2     1.238026  
      11A2     1.245130    16B1     1.252275    31A1     1.258886  
      32A1     1.323065    25B2     1.348295    33A1     1.383734  
      26B2     1.424083    17B1     1.436037    12A2     1.448598  
      34A1     1.465193    27B2     1.483263    13A2     1.484706  
      28B2     1.540155    35A1     1.601908    18B1     1.617069  
      19B1     1.647514    29B2     1.682604    36A1     1.703508  
      14A2     1.735165    30B2     1.748428    37A1     1.878879  
      31B2     1.954503    38A1     1.973286    20B1     2.058589  
      15A2     2.079763    39A1     2.114631    21B1     2.124387  
      32B2     2.162185    40A1     2.173163    16A2     2.253367  
      17A2     2.285155    41A1     2.288893    22B1     2.292807  
      33B2     2.303822    42A1     2.325981    43A1     2.381978  
      23B1     2.404531    34B2     2.413249    44A1     2.423351  
      35B2     2.445211    36B2     2.459469    24B1     2.466040  
      18A2     2.516119    45A1     2.531496    37B2     2.547408  
      25B1     2.551374    19A2     2.575274    46A1     2.618688  
      38B2     2.752195    39B2     2.780762    26B1     2.781352  
      20A2     2.816147    47A1     2.870195    27B1     2.940604  
      48A1     2.999017    21A2     3.044982    28B1     3.170554  
      40B2     3.227805    49A1     3.244037    41B2     3.280006  
      22A2     3.305170    50A1     3.351093    29B1     3.426193  
      51A1     3.605914    42B2     3.606781    43B2     3.825702  
      44B2     3.866808    52A1     4.013322    53A1     7.211525  
      45B2     7.648169    54A1     9.039083  

    Beta Occupied:                                                        

       1A1   -88.692274     2A1   -88.652778     1B2   -88.652778  
       3A1    -7.738775     2B2    -7.689096     4A1    -7.688975  
       3B2    -5.689468     5A1    -5.679449     1B1    -5.676174  
       6A1    -5.638240     4B2    -5.637705     1A2    -5.629880  
       2B1    -5.629867     5B2    -5.628491     7A1    -5.628484  
       8A1    -0.754227     6B2    -0.548072     9A1    -0.250926  
       3B1    -0.205702    10A1    -0.190570     7B2    -0.144179  
       2A2    -0.016551     8B2     0.017273    11A1     0.059963  
       4B1     0.168730  

    Beta Virtual:                                                         

       9B2     0.266926    12A1     0.272166    13A1     0.307035  
       3A2     0.332044    10B2     0.334722    14A1     0.337302  
       5B1     0.340339    11B2     0.354467     6B1     0.362606  
      15A1     0.388473    16A1     0.440656    12B2     0.457294  
      17A1     0.494669     7B1     0.511418    18A1     0.539846  
      13B2     0.543635     4A2     0.551225    14B2     0.565618  
      19A1     0.580898    15B2     0.605262     8B1     0.607929  
       5A2     0.613956    20A1     0.635133     9B1     0.653923  
      16B2     0.671607    21A1     0.671636     6A2     0.716413  
      22A1     0.732614    17B2     0.753689    10B1     0.758927  
      23A1     0.784753     7A2     0.818363    18B2     0.843257  
      19B2     0.851158    24A1     0.851595    11B1     0.858745  
      25A1     0.863793    26A1     0.888873    12B1     0.897733  
      20B2     0.924602     8A2     0.929086    21B2     0.974916  
      27A1     0.988509     9A2     0.993322    13B1     1.000788  
      28A1     1.011675    29A1     1.066495    22B2     1.093715  
      14B1     1.120614    23B2     1.136561    15B1     1.172515  
      30A1     1.190232    10A2     1.200414    24B2     1.238026  
      11A2     1.245130    16B1     1.252275    31A1     1.258886  
      32A1     1.323065    25B2     1.348295    33A1     1.383734  
      26B2     1.424083    17B1     1.436037    12A2     1.448598  
      34A1     1.465193    27B2     1.483263    13A2     1.484706  
      28B2     1.540155    35A1     1.601908    18B1     1.617069  
      19B1     1.647514    29B2     1.682604    36A1     1.703508  
      14A2     1.735165    30B2     1.748428    37A1     1.878879  
      31B2     1.954503    38A1     1.973286    20B1     2.058589  
      15A2     2.079763    39A1     2.114631    21B1     2.124387  
      32B2     2.162185    40A1     2.173163    16A2     2.253367  
      17A2     2.285155    41A1     2.288893    22B1     2.292807  
      33B2     2.303822    42A1     2.325981    43A1     2.381978  
      23B1     2.404531    34B2     2.413249    44A1     2.423351  
      35B2     2.445211    36B2     2.459469    24B1     2.466040  
      18A2     2.516119    45A1     2.531496    37B2     2.547408  
      25B1     2.551374    19A2     2.575274    46A1     2.618688  
      38B2     2.752195    39B2     2.780762    26B1     2.781352  
      20A2     2.816147    47A1     2.870195    27B1     2.940604  
      48A1     2.999017    21A2     3.044982    28B1     3.170554  
      40B2     3.227805    49A1     3.244037    41B2     3.280006  
      22A2     3.305170    50A1     3.351093    29B1     3.426193  
      51A1     3.605914    42B2     3.606781    43B2     3.825702  
      44B2     3.866808    52A1     4.013322    53A1     7.211525  
      45B2     7.648169    54A1     9.039083  

    Final Occupation by Irrep:
             A1    A2    B1    B2 
    DOCC [    11,    2,    4,    8 ]
    SOCC [     0,    0,    0,    0 ]

  @DF-UKS Final Energy: -1194.03172855439425

   => Energetics <=

    Nuclear Repulsion Energy =            232.7680045003673683
    One-Electron Energy =               -2130.8527461409612442
    Two-Electron Energy =                 760.9321578415803060
    DFT Exchange-Correlation Energy =     -56.8790899193228938
    Empirical Dispersion Energy =          -0.0000548360579170
    VV10 Nonlocal Energy =                  0.0000000000000000
    Total Energy =                      -1194.0317285543942489

  UHF NO Occupations:
  HONO-2 :    9 A1 2.0000000
  HONO-1 :   10 A1 2.0000000
  HONO-0 :   11 A1 2.0000000
  LUNO+0 :   12 A1 0.0000000
  LUNO+1 :   13 A1 0.0000000
  LUNO+2 :    9 B2 0.0000000
  LUNO+3 :   14 A1 0.0000000


Computation Completed


Properties will be evaluated at   0.000000,   0.000000,   0.000000 [a0]

Properties computed using the SCF density matrix

  Nuclear Dipole Moment: [e a0]
     X:     0.0000      Y:     0.0000      Z:     0.0000

  Electronic Dipole Moment: [e a0]
     X:     0.0000      Y:     0.0000      Z:    -1.8071

  Dipole Moment: [e a0]
     X:     0.0000      Y:     0.0000      Z:    -1.8071     Total:     1.8071

  Dipole Moment: [D]
     X:     0.0000      Y:     0.0000      Z:    -4.5932     Total:     4.5932


*** tstop() called on c1-4.compute.lan at Tue Feb  2 11:29:07 2021
Module time:
	user time   =      25.04 seconds =       0.42 minutes
	system time =       0.48 seconds =       0.01 minutes
	total time  =         26 seconds =       0.43 minutes
Total time:
	user time   =      25.04 seconds =       0.42 minutes
	system time =       0.48 seconds =       0.01 minutes
	total time  =         26 seconds =       0.43 minutes

*** tstart() called on c1-4.compute.lan
*** at Tue Feb  2 11:29:07 2021


         ------------------------------------------------------------
                                   SCF GRAD                          
                          Rob Parrish, Justin Turney,                
                       Andy Simmonett, and Alex Sokolov              
         ------------------------------------------------------------

  ==> Geometry <==

    Molecular point group: c2v
    Full point group: C2v

    Geometry (in Angstrom), charge = -2, multiplicity = 1:

       Center              X                  Y                   Z               Mass       
    ------------   -----------------  -----------------  -----------------  -----------------
         S            0.000000000000     0.000000000000    -0.500000000000    31.972071174400
         S            0.000000000000    -1.299038105677     0.250000000000    31.972071174400
         S            0.000000000000     1.299038105677     0.250000000000    31.972071174400

  Nuclear repulsion =  232.768004500367368

  ==> Basis Set <==

  Basis Set: AUG-CC-PVTZ
    Blend: AUG-CC-PVTZ
    Number of shells: 48
    Number of basis function: 150
    Number of Cartesian functions: 177
    Spherical Harmonics?: true
    Max angular momentum: 3

  ==> DFJKGrad: Density-Fitted SCF Gradients <==

    Gradient:                    1
    J tasked:                  Yes
    K tasked:                  Yes
    wK tasked:                 Yes
    Omega:               2.000E-01
    OpenMP threads:              1
    Integrals threads:           1
    Memory [MiB]:             7152
    Schwarz Cutoff:          0E+00
    Fitting Condition:       1E-10

   => Auxiliary Basis Set <=

  Basis Set: (AUG-CC-PVTZ AUX)
    Blend: AUG-CC-PVTZ-JKFIT
    Number of shells: 126
    Number of basis function: 438
    Number of Cartesian functions: 540
    Spherical Harmonics?: true
    Max angular momentum: 4

  ==> DFT Potential <==

   => Composite Functional: WB97X-D <= 

    wB97X-D Hyb-GGA Exchange-Correlation Functional

    J.-D. Chai and M. Head-Gordon, Phys. Chem. Chem. Phys. 10, 6615 (2008)

    Deriv               =              1
    GGA                 =           TRUE
    Meta                =          FALSE

    Exchange Hybrid     =           TRUE
    MP2 Hybrid          =          FALSE

   => Exchange-Correlation Functionals <=

    1.0000   wB97D range-separated functional

   => Exact (HF) Exchange <=

    0.7780            HF,LR [omega = 0.2000]
    0.2220               HF 

   => Molecular Quadrature <=

    Radial Scheme          =       TREUTLER
    Pruning Scheme         =           NONE
    Nuclear Scheme         =       TREUTLER

    BS radius alpha        =              1
    Pruning alpha          =              1
    Radial Points          =             75
    Spherical Points       =            302
    Total Points           =          65714
    Total Blocks           =            600
    Max Points             =            256
    Max Functions          =            150
    Weights Tolerance      =       1.00E-15


  -Total Gradient:
     Atom            X                  Y                   Z
    ------   -----------------  -----------------  -----------------
       1        0.000000000000     0.000000000000     0.761060031444
       2       -0.000000000000     0.684411885469    -0.380372027162
       3        0.000000000000    -0.684411885469    -0.380372027162


*** tstop() called on c1-4.compute.lan at Tue Feb  2 11:29:17 2021
Module time:
	user time   =      10.19 seconds =       0.17 minutes
	system time =       0.23 seconds =       0.00 minutes
	total time  =         10 seconds =       0.17 minutes
Total time:
	user time   =      35.23 seconds =       0.59 minutes
	system time =       0.71 seconds =       0.01 minutes
	total time  =         36 seconds =       0.60 minutes

			-----------------------------------------
			 OPTKING 2.0: for geometry optimizations 
			  - R.A. King,  Bethel University        
			-----------------------------------------

	Internal coordinates to be generated automatically.
	Detected frag 1 with atoms:  1 2 3
	---Fragment 1 Bond Connectivity---
	 1 : 2 3
	 2 : 1 3
	 3 : 1 2

	---Fragment 1 Geometry and Gradient---
	 S           0.0000000000        0.0000000000       -0.9448630627
	 S           0.0000000000       -2.4548262463        0.4724315314
	 S           0.0000000000        2.4548262463        0.4724315314
	             0.0000000000        0.0000000000        0.7610600314
	            -0.0000000000        0.6844118855       -0.3803720272
	             0.0000000000       -0.6844118855       -0.3803720272

	Previous optimization step data not found.  Starting new optimization.

	---Fragment 1 Intrafragment Coordinates---
	 - Coordinate -           - BOHR/RAD -       - ANG/DEG -
	 R(1,2)           =         2.834589	       1.500000
	 R(1,3)           =         2.834589	       1.500000
	 R(2,3)           =         4.909652	       2.598076
	 B(1,2,3)         =         0.523599	      30.000000
	 B(1,3,2)         =         0.523599	      30.000000
	 B(2,1,3)         =         2.094395	     120.000000

	Current energy   :     -1194.0317285544

	Generating empirical Hessian (Schlegel '84) for each fragment.
	Taking RFO optimization step.
	Going to follow RFO solution 1.
	Using RFO vector 1.
	Norm of target step-size    0.32977
	Projected energy change by RFO approximation:        -0.2494994212

	Back-transformation to cartesian coordinates...
	Successfully converged to displaced geometry.

	--- Internal Coordinate Step in ANG or DEG, aJ/ANG or AJ/DEG ---
	 ---------------------------------------------------------------------------
	   Coordinate                Previous        Force       Change         New 
	   ----------                --------       ------       ------       ------
	    1 R(1,2)          =      1.500000     3.867024     0.094118     1.594118
	    2 R(1,3)          =      1.500000     3.867024     0.094118     1.594118
	    3 R(2,3)          =      2.598076     2.983213     0.101982     2.700058
	    4 B(1,2,3)        =     30.000000     0.012103     2.125927    32.125927
	    5 B(1,3,2)        =     30.000000     0.012103     2.125927    32.125927
	    6 B(2,1,3)        =    120.000000    -0.024207    -4.251854   115.748146
	 ---------------------------------------------------------------------------
	Successfully symmetrized geometry.

  ==> Convergence Check <==

  Measures of convergence in internal coordinates in au.
  Criteria marked as inactive (o), active & met (*), and active & unmet ( ).
  --------------------------------------------------------------------------------------------- ~
   Step     Total Energy     Delta E     MAX Force     RMS Force      MAX Disp      RMS Disp    ~
  --------------------------------------------------------------------------------------------- ~
    Convergence Criteria    1.00e-06 *    3.00e-04 *             o    1.20e-03 *             o  ~
  --------------------------------------------------------------------------------------------- ~
      1   -1194.03172855   -1.19e+03      4.69e-01      3.47e-01 o    1.93e-01      1.35e-01 o  ~
  ---------------------------------------------------------------------------------------------

	Writing optimization data to binary file.
	Structure for next step:
	Cartesian Geometry (in Angstrom)
	    S     0.0000000000   0.0000000000  -0.5651487048
	    S     0.0000000000  -1.3500288888   0.2825743524
	    S     0.0000000000   1.3500288888   0.2825743524
			--------------------------
			 OPTKING Finished Execution 
			--------------------------

    Structure for next step:
    Molecular point group: c2v
    Full point group: C2v

    Geometry (in Angstrom), charge = -2, multiplicity = 1:

    S       
    S             1          R1
    S             1          R2      2          A1

    A1        =  115.7481464051
    R1        =    1.5941180641
    R2        =    1.5941180641

gradient() will perform analytic gradient computation.

*** tstart() called on c1-4.compute.lan
*** at Tue Feb  2 11:29:17 2021

   => Loading Basis Set <=

    Name: AUG-CC-PVTZ
    Role: ORBITAL
    Keyword: BASIS
    atoms 1-3 entry S          line   906 file /apps/gb/PSI4/1.4.0/share/psi4/basis/aug-cc-pvtz.gbs 

   => WB97X-D: Empirical Dispersion <=

    Chai and Head-Gordon Dispersion Correction
    Chai, J.-D.; Head-Gordon, M. (2010), J. Chem. Phys., 132: 6615-6620

        s6 =       1.000000


         ---------------------------------------------------------
                                   SCF
               by Justin Turney, Rob Parrish, Andy Simmonett
                          and Daniel G. A. Smith
                              UKS Reference
                        1 Threads,   9536 MiB Core
         ---------------------------------------------------------

  ==> Geometry <==

    Molecular point group: c2v
    Full point group: C2v

    Geometry (in Angstrom), charge = -2, multiplicity = 1:

       Center              X                  Y                   Z               Mass       
    ------------   -----------------  -----------------  -----------------  -----------------
         S            0.000000000000     0.000000000000    -0.565148706972    31.972071174400
         S            0.000000000000    -1.350028894140     0.282574353486    31.972071174400
         S            0.000000000000     1.350028894140     0.282574353486    31.972071174400

  Running in c2v symmetry.

  Rotational constants: A =      1.10055  B =      0.14465  C =      0.12784 [cm^-1]
  Rotational constants: A =  32993.59906  B =   4336.40968  C =   3832.67423 [MHz]
  Nuclear repulsion =  220.134287033699906

  Charge       = -2
  Multiplicity = 1
  Electrons    = 50
  Nalpha       = 25
  Nbeta        = 25

  ==> Algorithm <==

  SCF Algorithm Type is DF.
  DIIS enabled.
  MOM disabled.
  Fractional occupation disabled.
  Guess Type is READ.
  Energy threshold   = 1.00e-08
  Density threshold  = 1.00e-08
  Integral threshold = 0.00e+00

  ==> Primary Basis <==

  Basis Set: AUG-CC-PVTZ
    Blend: AUG-CC-PVTZ
    Number of shells: 48
    Number of basis function: 150
    Number of Cartesian functions: 177
    Spherical Harmonics?: true
    Max angular momentum: 3

  ==> DFT Potential <==

   => Composite Functional: WB97X-D <= 

    wB97X-D Hyb-GGA Exchange-Correlation Functional

    J.-D. Chai and M. Head-Gordon, Phys. Chem. Chem. Phys. 10, 6615 (2008)

    Deriv               =              1
    GGA                 =           TRUE
    Meta                =          FALSE

    Exchange Hybrid     =           TRUE
    MP2 Hybrid          =          FALSE

   => Exchange-Correlation Functionals <=

    1.0000   wB97D range-separated functional

   => Exact (HF) Exchange <=

    0.7780            HF,LR [omega = 0.2000]
    0.2220               HF 

   => Molecular Quadrature <=

    Radial Scheme          =       TREUTLER
    Pruning Scheme         =           NONE
    Nuclear Scheme         =       TREUTLER

    BS radius alpha        =              1
    Pruning alpha          =              1
    Radial Points          =             75
    Spherical Points       =            302
    Total Points           =          65750
    Total Blocks           =            601
    Max Points             =            255
    Max Functions          =            150
    Weights Tolerance      =       1.00E-15

   => Loading Basis Set <=

    Name: (AUG-CC-PVTZ AUX)
    Role: JKFIT
    Keyword: DF_BASIS_SCF
    atoms 1-3 entry S          line   730 file /apps/gb/PSI4/1.4.0/share/psi4/basis/aug-cc-pvtz-jkfit.gbs 

   => Loading Basis Set <=

    Name: AUG-CC-PVTZ
    Role: ORBITAL
    Keyword: BASIS
    atoms 1-3 entry S          line   906 file /apps/gb/PSI4/1.4.0/share/psi4/basis/aug-cc-pvtz.gbs 

  Reading orbitals from file 180, no projection.

  ==> Pre-Iterations <==

   -------------------------------------------------------
    Irrep   Nso     Nmo     Nalpha   Nbeta   Ndocc  Nsocc
   -------------------------------------------------------
     A1        54      54       0       0       0       0
     A2        22      22       0       0       0       0
     B1        29      29       0       0       0       0
     B2        45      45       0       0       0       0
   -------------------------------------------------------
    Total     150     150      25      25      25       0
   -------------------------------------------------------

  ==> Integral Setup <==

  ==> DiskDFJK: Density-Fitted J/K Matrices <==

    J tasked:                  Yes
    K tasked:                  Yes
    wK tasked:                 Yes
    Omega:               2.000E-01
    OpenMP threads:              1
    Integrals threads:           1
    Memory [MiB]:             6881
    Algorithm:                Core
    Integral Cache:           NONE
    Schwarz Cutoff:          1E-12
    Fitting Condition:       1E-10

   => Auxiliary Basis Set <=

  Basis Set: (AUG-CC-PVTZ AUX)
    Blend: AUG-CC-PVTZ-JKFIT
    Number of shells: 126
    Number of basis function: 438
    Number of Cartesian functions: 540
    Spherical Harmonics?: true
    Max angular momentum: 4

  Cached 100.0% of DFT collocation blocks in 0.265 [GiB].

  Minimum eigenvalue in the overlap matrix is 7.6398803118E-05.
  Using Symmetric Orthogonalization.

  SCF Guess: Orbitals guess was supplied from a previous computation.

  ==> Iterations <==

                           Total Energy        Delta E     RMS |[F,P]|

   @DF-UKS iter   0: -1194.19792089704174   -1.19420e+03   1.00081e-02 
   @DF-UKS iter   1: -1194.25236229351049   -5.44414e-02   8.47388e-04 DIIS
   @DF-UKS iter   2: -1194.25257712349230   -2.14830e-04   8.83333e-04 DIIS
   @DF-UKS iter   3: -1194.25539450138604   -2.81738e-03   1.34880e-04 DIIS
   @DF-UKS iter   4: -1194.25549856939233   -1.04068e-04   3.64576e-05 DIIS
   @DF-UKS iter   5: -1194.25554301400007   -4.44446e-05   2.07243e-05 DIIS
   @DF-UKS iter   6: -1194.25555254325127   -9.52925e-06   8.40497e-06 DIIS
   @DF-UKS iter   7: -1194.25555591953480   -3.37628e-06   3.79085e-06 DIIS
   @DF-UKS iter   8: -1194.25555650184560   -5.82311e-07   2.27141e-06 DIIS
   @DF-UKS iter   9: -1194.25555678357932   -2.81734e-07   9.95569e-07 DIIS
   @DF-UKS iter  10: -1194.25555687682481   -9.32455e-08   3.30288e-07 DIIS
   @DF-UKS iter  11: -1194.25555688408144   -7.25663e-09   7.88429e-08 DIIS
   @DF-UKS iter  12: -1194.25555688431973   -2.38288e-10   1.50988e-08 DIIS
   @DF-UKS iter  13: -1194.25555688432632   -6.59384e-12   5.88932e-09 DIIS
  Energy and wave function converged.


  ==> Post-Iterations <==

   @Spin Contamination Metric:  -8.881784197E-14
   @S^2 Expected:                0.000000000E+00
   @S^2 Observed:               -8.881784197E-14
   @S   Expected:                0.000000000E+00
   @S   Observed:                0.000000000E+00

    Orbital Energies [Eh]
    ---------------------

    Alpha Occupied:                                                       

       1A1   -88.692984     1B2   -88.649755     2A1   -88.649753  
       3A1    -7.725271     2B2    -7.676764     4A1    -7.676728  
       3B2    -5.674972     5A1    -5.667920     1B1    -5.664444  
       6A1    -5.625878     4B2    -5.625737     1A2    -5.618625  
       2B1    -5.618621     5B2    -5.617786     7A1    -5.617784  
       8A1    -0.703865     6B2    -0.509598     9A1    -0.245295  
       3B1    -0.164601    10A1    -0.159434     7B2    -0.131459  
       2A2     0.005759     8B2     0.037162    11A1     0.055707  
       4B1     0.161803  

    Alpha Virtual:                                                        

       9B2     0.269355    12A1     0.274273    13A1     0.310379  
       3A2     0.338025    10B2     0.338586    14A1     0.340418  
       5B1     0.343320    11B2     0.356263     6B1     0.359918  
      15A1     0.396106    16A1     0.445742    12B2     0.459562  
      17A1     0.496444     7B1     0.522769    13B2     0.539735  
      18A1     0.550349     4A2     0.557659    14B2     0.572191  
      19A1     0.588990    15B2     0.612134     8B1     0.613781  
       5A2     0.625348    20A1     0.630988     9B1     0.655693  
      16B2     0.668487    21A1     0.692135     6A2     0.715461  
      22A1     0.733640    17B2     0.746283    10B1     0.773059  
      23A1     0.799802     7A2     0.838059    24A1     0.858539  
      18B2     0.859087    19B2     0.867682    11B1     0.876537  
      25A1     0.878111    26A1     0.896228    12B1     0.906386  
      20B2     0.924324     8A2     0.928488    27A1     0.968133  
      21B2     0.988930    13B1     0.999181     9A2     1.006850  
      28A1     1.011768    29A1     1.072206    22B2     1.097901  
      23B2     1.116898    14B1     1.125756    15B1     1.168427  
      30A1     1.187640    10A2     1.196588    11A2     1.230387  
      24B2     1.234767    16B1     1.237388    31A1     1.249032  
      32A1     1.309508    25B2     1.341344    33A1     1.376405  
      26B2     1.422735    17B1     1.429181    12A2     1.452615  
      27B2     1.466786    34A1     1.468689    13A2     1.476326  
      28B2     1.550942    18B1     1.594425    35A1     1.617761  
      19B1     1.632503    29B2     1.656752    36A1     1.678185  
      14A2     1.701131    30B2     1.764195    37A1     1.841196  
      31B2     1.885697    38A1     1.889173    20B1     2.097392  
      15A2     2.117334    39A1     2.147582    21B1     2.173769  
      32B2     2.187946    40A1     2.197538    16A2     2.261867  
      22B1     2.289143    41A1     2.303618    17A2     2.321372  
      42A1     2.329953    33B2     2.331299    43A1     2.343989  
      34B2     2.373690    44A1     2.399781    23B1     2.426253  
      24B1     2.443879    35B2     2.446951    36B2     2.474325  
      45A1     2.524682    18A2     2.528310    37B2     2.560699  
      25B1     2.566294    19A2     2.589831    46A1     2.636535  
      38B2     2.694766    39B2     2.709441    26B1     2.712569  
      20A2     2.737489    47A1     2.831313    27B1     2.893180  
      48A1     2.916381    21A2     2.955088    28B1     3.077866  
      40B2     3.110781    41B2     3.120299    49A1     3.189433  
      22A2     3.251962    50A1     3.313153    29B1     3.335172  
      42B2     3.485148    51A1     3.538948    43B2     3.723061  
      52A1     3.806535    44B2     3.933161    53A1     6.559171  
      45B2     6.985297    54A1     7.965090  

    Beta Occupied:                                                        

       1A1   -88.692984     1B2   -88.649755     2A1   -88.649753  
       3A1    -7.725271     2B2    -7.676764     4A1    -7.676728  
       3B2    -5.674972     5A1    -5.667920     1B1    -5.664444  
       6A1    -5.625878     4B2    -5.625737     1A2    -5.618625  
       2B1    -5.618621     5B2    -5.617786     7A1    -5.617784  
       8A1    -0.703865     6B2    -0.509598     9A1    -0.245295  
       3B1    -0.164601    10A1    -0.159434     7B2    -0.131459  
       2A2     0.005759     8B2     0.037162    11A1     0.055707  
       4B1     0.161803  

    Beta Virtual:                                                         

       9B2     0.269355    12A1     0.274273    13A1     0.310379  
       3A2     0.338025    10B2     0.338586    14A1     0.340418  
       5B1     0.343320    11B2     0.356263     6B1     0.359918  
      15A1     0.396106    16A1     0.445742    12B2     0.459562  
      17A1     0.496444     7B1     0.522769    13B2     0.539735  
      18A1     0.550349     4A2     0.557659    14B2     0.572191  
      19A1     0.588990    15B2     0.612134     8B1     0.613781  
       5A2     0.625348    20A1     0.630988     9B1     0.655693  
      16B2     0.668487    21A1     0.692135     6A2     0.715461  
      22A1     0.733640    17B2     0.746283    10B1     0.773059  
      23A1     0.799802     7A2     0.838059    24A1     0.858539  
      18B2     0.859087    19B2     0.867682    11B1     0.876537  
      25A1     0.878111    26A1     0.896228    12B1     0.906386  
      20B2     0.924324     8A2     0.928488    27A1     0.968133  
      21B2     0.988930    13B1     0.999181     9A2     1.006850  
      28A1     1.011768    29A1     1.072206    22B2     1.097901  
      23B2     1.116898    14B1     1.125756    15B1     1.168427  
      30A1     1.187640    10A2     1.196588    11A2     1.230387  
      24B2     1.234767    16B1     1.237388    31A1     1.249032  
      32A1     1.309508    25B2     1.341344    33A1     1.376405  
      26B2     1.422735    17B1     1.429181    12A2     1.452615  
      27B2     1.466786    34A1     1.468689    13A2     1.476326  
      28B2     1.550942    18B1     1.594425    35A1     1.617761  
      19B1     1.632503    29B2     1.656752    36A1     1.678185  
      14A2     1.701131    30B2     1.764195    37A1     1.841196  
      31B2     1.885697    38A1     1.889173    20B1     2.097392  
      15A2     2.117334    39A1     2.147582    21B1     2.173769  
      32B2     2.187946    40A1     2.197538    16A2     2.261867  
      22B1     2.289143    41A1     2.303618    17A2     2.321372  
      42A1     2.329953    33B2     2.331299    43A1     2.343989  
      34B2     2.373690    44A1     2.399781    23B1     2.426253  
      24B1     2.443879    35B2     2.446951    36B2     2.474325  
      45A1     2.524682    18A2     2.528310    37B2     2.560699  
      25B1     2.566294    19A2     2.589831    46A1     2.636535  
      38B2     2.694766    39B2     2.709441    26B1     2.712569  
      20A2     2.737489    47A1     2.831313    27B1     2.893180  
      48A1     2.916381    21A2     2.955088    28B1     3.077866  
      40B2     3.110781    41B2     3.120299    49A1     3.189433  
      22A2     3.251962    50A1     3.313153    29B1     3.335172  
      42B2     3.485148    51A1     3.538948    43B2     3.723061  
      52A1     3.806535    44B2     3.933161    53A1     6.559171  
      45B2     6.985297    54A1     7.965090  

    Final Occupation by Irrep:
             A1    A2    B1    B2 
    DOCC [    11,    2,    4,    8 ]
    SOCC [     0,    0,    0,    0 ]

  @DF-UKS Final Energy: -1194.25555688432632

   => Energetics <=

    Nuclear Repulsion Energy =            220.1342870336999056
    One-Electron Energy =               -2106.8267054718662621
    Two-Electron Energy =                 749.2079689295463822
    DFT Exchange-Correlation Energy =     -56.7710378787337007
    Empirical Dispersion Energy =          -0.0000694969724688
    VV10 Nonlocal Energy =                  0.0000000000000000
    Total Energy =                      -1194.2555568843260971

  UHF NO Occupations:
  HONO-2 :   10 A1 2.0000000
  HONO-1 :    8 B2 2.0000000
  HONO-0 :   11 A1 2.0000000
  LUNO+0 :    9 B2 0.0000000
  LUNO+1 :   10 B2 0.0000000
  LUNO+2 :   12 A1 0.0000000
  LUNO+3 :   13 A1 0.0000000


Computation Completed


Properties will be evaluated at   0.000000,   0.000000,   0.000000 [a0]

Properties computed using the SCF density matrix

  Nuclear Dipole Moment: [e a0]
     X:     0.0000      Y:     0.0000      Z:    -0.0000

  Electronic Dipole Moment: [e a0]
     X:     0.0000      Y:     0.0000      Z:    -1.4549

  Dipole Moment: [e a0]
     X:     0.0000      Y:     0.0000      Z:    -1.4549     Total:     1.4549

  Dipole Moment: [D]
     X:     0.0000      Y:     0.0000      Z:    -3.6979     Total:     3.6979


*** tstop() called on c1-4.compute.lan at Tue Feb  2 11:29:38 2021
Module time:
	user time   =      20.70 seconds =       0.35 minutes
	system time =       0.24 seconds =       0.00 minutes
	total time  =         21 seconds =       0.35 minutes
Total time:
	user time   =      55.94 seconds =       0.93 minutes
	system time =       0.95 seconds =       0.02 minutes
	total time  =         57 seconds =       0.95 minutes

*** tstart() called on c1-4.compute.lan
*** at Tue Feb  2 11:29:38 2021


         ------------------------------------------------------------
                                   SCF GRAD                          
                          Rob Parrish, Justin Turney,                
                       Andy Simmonett, and Alex Sokolov              
         ------------------------------------------------------------

  ==> Geometry <==

    Molecular point group: c2v
    Full point group: C2v

    Geometry (in Angstrom), charge = -2, multiplicity = 1:

       Center              X                  Y                   Z               Mass       
    ------------   -----------------  -----------------  -----------------  -----------------
         S            0.000000000000     0.000000000000    -0.565148706972    31.972071174400
         S            0.000000000000    -1.350028894140     0.282574353486    31.972071174400
         S            0.000000000000     1.350028894140     0.282574353486    31.972071174400

  Nuclear repulsion =  220.134287033699906

  ==> Basis Set <==

  Basis Set: AUG-CC-PVTZ
    Blend: AUG-CC-PVTZ
    Number of shells: 48
    Number of basis function: 150
    Number of Cartesian functions: 177
    Spherical Harmonics?: true
    Max angular momentum: 3

  ==> DFJKGrad: Density-Fitted SCF Gradients <==

    Gradient:                    1
    J tasked:                  Yes
    K tasked:                  Yes
    wK tasked:                 Yes
    Omega:               2.000E-01
    OpenMP threads:              1
    Integrals threads:           1
    Memory [MiB]:             7152
    Schwarz Cutoff:          0E+00
    Fitting Condition:       1E-10

   => Auxiliary Basis Set <=

  Basis Set: (AUG-CC-PVTZ AUX)
    Blend: AUG-CC-PVTZ-JKFIT
    Number of shells: 126
    Number of basis function: 438
    Number of Cartesian functions: 540
    Spherical Harmonics?: true
    Max angular momentum: 4

  ==> DFT Potential <==

   => Composite Functional: WB97X-D <= 

    wB97X-D Hyb-GGA Exchange-Correlation Functional

    J.-D. Chai and M. Head-Gordon, Phys. Chem. Chem. Phys. 10, 6615 (2008)

    Deriv               =              1
    GGA                 =           TRUE
    Meta                =          FALSE

    Exchange Hybrid     =           TRUE
    MP2 Hybrid          =          FALSE

   => Exchange-Correlation Functionals <=

    1.0000   wB97D range-separated functional

   => Exact (HF) Exchange <=

    0.7780            HF,LR [omega = 0.2000]
    0.2220               HF 

   => Molecular Quadrature <=

    Radial Scheme          =       TREUTLER
    Pruning Scheme         =           NONE
    Nuclear Scheme         =       TREUTLER

    BS radius alpha        =              1
    Pruning alpha          =              1
    Radial Points          =             75
    Spherical Points       =            302
    Total Points           =          65750
    Total Blocks           =            601
    Max Points             =            255
    Max Functions          =            150
    Weights Tolerance      =       1.00E-15


  -Total Gradient:
     Atom            X                  Y                   Z
    ------   -----------------  -----------------  -----------------
       1        0.000000000000     0.000000000000     0.517742591800
       2       -0.000000000000     0.434639347791    -0.258948491621
       3        0.000000000000    -0.434639347791    -0.258948491621


*** tstop() called on c1-4.compute.lan at Tue Feb  2 11:29:49 2021
Module time:
	user time   =      10.12 seconds =       0.17 minutes
	system time =       0.20 seconds =       0.00 minutes
	total time  =         11 seconds =       0.18 minutes
Total time:
	user time   =      66.06 seconds =       1.10 minutes
	system time =       1.15 seconds =       0.02 minutes
	total time  =         68 seconds =       1.13 minutes

			-----------------------------------------
			 OPTKING 2.0: for geometry optimizations 
			  - R.A. King,  Bethel University        
			-----------------------------------------

	Previous internal coordinate definitions found.
	---Fragment 1 Geometry and Gradient---
	 S           0.0000000000        0.0000000000       -1.0679762763
	 S           0.0000000000       -2.5511848714        0.5339881382
	 S           0.0000000000        2.5511848714        0.5339881382
	             0.0000000000        0.0000000000        0.5177425918
	            -0.0000000000        0.4346393478       -0.2589484916
	             0.0000000000       -0.4346393478       -0.2589484916

	---Fragment 1 Intrafragment Coordinates---
	 - Coordinate -           - BOHR/RAD -       - ANG/DEG -
	 R(1,2)           =         3.012447	       1.594118
	 R(1,3)           =         3.012447	       1.594118
	 R(2,3)           =         5.102370	       2.700058
	 B(1,2,3)         =         0.560703	      32.125927
	 B(1,3,2)         =         0.560703	      32.125927
	 B(2,1,3)         =         2.020186	     115.748146

	Current energy   :     -1194.2555568843

	Energy change for the previous step:
		Projected    :        -0.2494994212
		Actual       :        -0.2238283299
	Energy ratio indicates good step: Trust radius increased to 1.000e+00.


	Performing BFGS update.
	Previous computed or guess Hessian on step 1.
	Steps to be used in Hessian update: 1
	Taking RFO optimization step.
	Going to follow RFO solution 1.
	Using RFO vector 1.
	Norm of target step-size    0.48970
	Projected energy change by RFO approximation:        -0.2443047682

	Back-transformation to cartesian coordinates...
	Successfully converged to displaced geometry.

	--- Internal Coordinate Step in ANG or DEG, aJ/ANG or AJ/DEG ---
	 ---------------------------------------------------------------------------
	   Coordinate                Previous        Force       Change         New 
	   ----------                --------       ------       ------       ------
	    1 R(1,2)          =      1.594118     2.660649     0.152797     1.746915
	    2 R(1,3)          =      1.594118     2.660649     0.152797     1.746915
	    3 R(2,3)          =      2.700058     1.778532     0.076968     2.777026
	    4 B(1,2,3)        =     32.125927     0.007864     5.234172    37.360099
	    5 B(1,3,2)        =     32.125927     0.007864     5.234172    37.360099
	    6 B(2,1,3)        =    115.748146    -0.015728   -10.468343   105.279803
	 ---------------------------------------------------------------------------
	Successfully symmetrized geometry.

  ==> Convergence Check <==

  Measures of convergence in internal coordinates in au.
  Criteria marked as inactive (o), active & met (*), and active & unmet ( ).
  ---------------------------------------------------------------------------------------------
   Step     Total Energy     Delta E     MAX Force     RMS Force      MAX Disp      RMS Disp   
  ---------------------------------------------------------------------------------------------
    Convergence Criteria    1.00e-06 *    3.00e-04 *             o    1.20e-03 *             o
  ---------------------------------------------------------------------------------------------
      2   -1194.25555688   -2.24e-01      3.23e-01      2.31e-01 o    2.89e-01      1.99e-01 o  ~
  ---------------------------------------------------------------------------------------------

	Writing optimization data to binary file.
	Structure for next step:
	Cartesian Geometry (in Angstrom)
	    S     0.0000000000   0.0000000000  -0.7067113287
	    S     0.0000000000  -1.3885130681   0.3533556643
	    S     0.0000000000   1.3885130681   0.3533556643
			--------------------------
			 OPTKING Finished Execution 
			--------------------------

    Structure for next step:
    Molecular point group: c2v
    Full point group: C2v

    Geometry (in Angstrom), charge = -2, multiplicity = 1:

    S       
    S             1          R1
    S             1          R2      2          A1

    A1        =  105.2798029708
    R1        =    1.7469145926
    R2        =    1.7469145926

gradient() will perform analytic gradient computation.

*** tstart() called on c1-4.compute.lan
*** at Tue Feb  2 11:29:49 2021

   => Loading Basis Set <=

    Name: AUG-CC-PVTZ
    Role: ORBITAL
    Keyword: BASIS
    atoms 1-3 entry S          line   906 file /apps/gb/PSI4/1.4.0/share/psi4/basis/aug-cc-pvtz.gbs 

   => WB97X-D: Empirical Dispersion <=

    Chai and Head-Gordon Dispersion Correction
    Chai, J.-D.; Head-Gordon, M. (2010), J. Chem. Phys., 132: 6615-6620

        s6 =       1.000000


         ---------------------------------------------------------
                                   SCF
               by Justin Turney, Rob Parrish, Andy Simmonett
                          and Daniel G. A. Smith
                              UKS Reference
                        1 Threads,   9536 MiB Core
         ---------------------------------------------------------

  ==> Geometry <==

    Molecular point group: c2v
    Full point group: C2v

    Geometry (in Angstrom), charge = -2, multiplicity = 1:

       Center              X                  Y                   Z               Mass       
    ------------   -----------------  -----------------  -----------------  -----------------
         S            0.000000000000     0.000000000000    -0.706711331439    31.972071174400
         S            0.000000000000    -1.388513073517     0.353355665719    31.972071174400
         S            0.000000000000     1.388513073517     0.353355665719    31.972071174400

  Running in c2v symmetry.

  Rotational constants: A =      0.70380  B =      0.13674  C =      0.11450 [cm^-1]
  Rotational constants: A =  21099.44634  B =   4099.36403  C =   3432.47598 [MHz]
  Nuclear repulsion =  203.877751511662666

  Charge       = -2
  Multiplicity = 1
  Electrons    = 50
  Nalpha       = 25
  Nbeta        = 25

  ==> Algorithm <==

  SCF Algorithm Type is DF.
  DIIS enabled.
  MOM disabled.
  Fractional occupation disabled.
  Guess Type is READ.
  Energy threshold   = 1.00e-08
  Density threshold  = 1.00e-08
  Integral threshold = 0.00e+00

  ==> Primary Basis <==

  Basis Set: AUG-CC-PVTZ
    Blend: AUG-CC-PVTZ
    Number of shells: 48
    Number of basis function: 150
    Number of Cartesian functions: 177
    Spherical Harmonics?: true
    Max angular momentum: 3

  ==> DFT Potential <==

   => Composite Functional: WB97X-D <= 

    wB97X-D Hyb-GGA Exchange-Correlation Functional

    J.-D. Chai and M. Head-Gordon, Phys. Chem. Chem. Phys. 10, 6615 (2008)

    Deriv               =              1
    GGA                 =           TRUE
    Meta                =          FALSE

    Exchange Hybrid     =           TRUE
    MP2 Hybrid          =          FALSE

   => Exchange-Correlation Functionals <=

    1.0000   wB97D range-separated functional

   => Exact (HF) Exchange <=

    0.7780            HF,LR [omega = 0.2000]
    0.2220               HF 

   => Molecular Quadrature <=

    Radial Scheme          =       TREUTLER
    Pruning Scheme         =           NONE
    Nuclear Scheme         =       TREUTLER

    BS radius alpha        =              1
    Pruning alpha          =              1
    Radial Points          =             75
    Spherical Points       =            302
    Total Points           =          65848
    Total Blocks           =            595
    Max Points             =            256
    Max Functions          =            150
    Weights Tolerance      =       1.00E-15

   => Loading Basis Set <=

    Name: (AUG-CC-PVTZ AUX)
    Role: JKFIT
    Keyword: DF_BASIS_SCF
    atoms 1-3 entry S          line   730 file /apps/gb/PSI4/1.4.0/share/psi4/basis/aug-cc-pvtz-jkfit.gbs 

   => Loading Basis Set <=

    Name: AUG-CC-PVTZ
    Role: ORBITAL
    Keyword: BASIS
    atoms 1-3 entry S          line   906 file /apps/gb/PSI4/1.4.0/share/psi4/basis/aug-cc-pvtz.gbs 

  Reading orbitals from file 180, no projection.

  ==> Pre-Iterations <==

   -------------------------------------------------------
    Irrep   Nso     Nmo     Nalpha   Nbeta   Ndocc  Nsocc
   -------------------------------------------------------
     A1        54      54       0       0       0       0
     A2        22      22       0       0       0       0
     B1        29      29       0       0       0       0
     B2        45      45       0       0       0       0
   -------------------------------------------------------
    Total     150     150      25      25      25       0
   -------------------------------------------------------

  ==> Integral Setup <==

  ==> DiskDFJK: Density-Fitted J/K Matrices <==

    J tasked:                  Yes
    K tasked:                  Yes
    wK tasked:                 Yes
    Omega:               2.000E-01
    OpenMP threads:              1
    Integrals threads:           1
    Memory [MiB]:             6881
    Algorithm:                Core
    Integral Cache:           NONE
    Schwarz Cutoff:          1E-12
    Fitting Condition:       1E-10

   => Auxiliary Basis Set <=

  Basis Set: (AUG-CC-PVTZ AUX)
    Blend: AUG-CC-PVTZ-JKFIT
    Number of shells: 126
    Number of basis function: 438
    Number of Cartesian functions: 540
    Spherical Harmonics?: true
    Max angular momentum: 4

  Cached 100.0% of DFT collocation blocks in 0.265 [GiB].

  Minimum eigenvalue in the overlap matrix is 1.1806525403E-04.
  Using Symmetric Orthogonalization.

  SCF Guess: Orbitals guess was supplied from a previous computation.

  ==> Iterations <==

                           Total Energy        Delta E     RMS |[F,P]|

   @DF-UKS iter   0: -1194.36383000323849   -1.19436e+03   1.26473e-02 
   @DF-UKS iter   1: -1194.44522888243364   -8.13989e-02   1.30417e-03 DIIS
   @DF-UKS iter   2: -1194.44754004972265   -2.31117e-03   1.23769e-03 DIIS
   @DF-UKS iter   3: -1194.45312773698583   -5.58769e-03   2.12265e-04 DIIS
   @DF-UKS iter   4: -1194.45343270349849   -3.04967e-04   6.18626e-05 DIIS
   @DF-UKS iter   5: -1194.45357438048313   -1.41677e-04   2.73339e-05 DIIS
   @DF-UKS iter   6: -1194.45359871628625   -2.43358e-05   1.51361e-05 DIIS
   @DF-UKS iter   7: -1194.45360604330426   -7.32702e-06   5.38527e-06 DIIS
   @DF-UKS iter   8: -1194.45360707874215   -1.03544e-06   2.61115e-06 DIIS
   @DF-UKS iter   9: -1194.45360732068343   -2.41941e-07   1.00260e-06 DIIS
   @DF-UKS iter  10: -1194.45360738361569   -6.29323e-08   4.12197e-07 DIIS
   @DF-UKS iter  11: -1194.45360739330386   -9.68816e-09   1.26879e-07 DIIS
   @DF-UKS iter  12: -1194.45360739403441   -7.30552e-10   2.91181e-08 DIIS
   @DF-UKS iter  13: -1194.45360739406988   -3.54703e-11   8.76563e-09 DIIS
  Energy and wave function converged.


  ==> Post-Iterations <==

   @Spin Contamination Metric:  -1.350031198E-13
   @S^2 Expected:                0.000000000E+00
   @S^2 Observed:               -1.350031198E-13
   @S   Expected:                0.000000000E+00
   @S   Observed:                0.000000000E+00

    Orbital Energies [Eh]
    ---------------------

    Alpha Occupied:                                                       

       1A1   -88.700975     1B2   -88.647558     2A1   -88.647553  
       3A1    -7.718306     2B2    -7.664832     4A1    -7.664824  
       3B2    -5.667721     5A1    -5.663305     1B1    -5.658519  
       6A1    -5.614314     4B2    -5.614305     5B2    -5.607350  
       7A1    -5.607349     1A2    -5.607271     2B1    -5.607270  
       8A1    -0.634013     6B2    -0.450392     9A1    -0.253639  
      10A1    -0.119840     3B1    -0.114523     7B2    -0.111395  
       2A2     0.033445    11A1     0.043202     8B2     0.067702  
       4B1     0.143613  

    Alpha Virtual:                                                        

       9B2     0.273487    12A1     0.275499    13A1     0.312975  
      10B2     0.342780    14A1     0.344717     5B1     0.344813  
       3A2     0.346928    11B2     0.356447     6B1     0.357997  
      15A1     0.404855    16A1     0.445271    12B2     0.456587  
      17A1     0.496098    13B2     0.519734     7B1     0.538504  
       4A2     0.563349    18A1     0.563836    14B2     0.581720  
      19A1     0.602809     8B1     0.613010    20A1     0.617100  
      15B2     0.618518     5A2     0.642578     9B1     0.658280  
      16B2     0.664406    21A1     0.705144     6A2     0.708068  
      22A1     0.724100    17B2     0.726256    10B1     0.792126  
      23A1     0.825754     7A2     0.867248    18B2     0.877517  
      24A1     0.879484    25A1     0.890243    11B1     0.893261  
      19B2     0.893348    26A1     0.904180    12B1     0.918930  
       8A2     0.922001    20B2     0.934304    27A1     0.941351  
      13B1     0.994058    21B2     1.010342    28A1     1.010512  
       9A2     1.029730    29A1     1.076223    22B2     1.077168  
      23B2     1.109243    14B1     1.123067    10A2     1.165020  
      30A1     1.168043    15B1     1.177578    16B1     1.205869  
      31A1     1.221957    11A2     1.229082    24B2     1.234054  
      32A1     1.264343    25B2     1.304228    33A1     1.375870  
      17B1     1.410571    26B2     1.424570    27B2     1.434668  
      12A2     1.437861    34A1     1.465710    13A2     1.473500  
      18B1     1.557915    28B2     1.558037    29B2     1.590994  
      19B1     1.596665    35A1     1.599741    14A2     1.647499  
      36A1     1.682991    37A1     1.731674    30B2     1.775871  
      31B2     1.815926    38A1     1.858379    20B1     2.154139  
      15A2     2.169123    39A1     2.192994    32B2     2.228592  
      40A1     2.231911    21B1     2.234135    41A1     2.280874  
      16A2     2.289243    42A1     2.294055    22B1     2.297961  
      33B2     2.332769    43A1     2.351416    34B2     2.354772  
      17A2     2.371848    44A1     2.396774    23B1     2.405447  
      35B2     2.440141    24B1     2.454900    36B2     2.473305  
      45A1     2.533344    18A2     2.533611    37B2     2.576589  
      25B1     2.586756    26B1     2.594766    19A2     2.603452  
      38B2     2.632723    20A2     2.634896    46A1     2.675012  
      39B2     2.703024    47A1     2.750196    48A1     2.831998  
      27B1     2.834416    21A2     2.835833    40B2     2.935976  
      28B1     2.936157    41B2     2.954044    49A1     3.006155  
      22A2     3.178471    29B1     3.201833    42B2     3.280150  
      50A1     3.287323    51A1     3.395041    43B2     3.485170  
      52A1     3.767133    44B2     4.067896    53A1     5.757784  
      45B2     6.383540    54A1     6.851729  

    Beta Occupied:                                                        

       1A1   -88.700975     1B2   -88.647558     2A1   -88.647553  
       3A1    -7.718306     2B2    -7.664832     4A1    -7.664824  
       3B2    -5.667721     5A1    -5.663305     1B1    -5.658519  
       6A1    -5.614314     4B2    -5.614305     5B2    -5.607350  
       7A1    -5.607349     1A2    -5.607271     2B1    -5.607270  
       8A1    -0.634013     6B2    -0.450392     9A1    -0.253639  
      10A1    -0.119840     3B1    -0.114523     7B2    -0.111395  
       2A2     0.033445    11A1     0.043202     8B2     0.067702  
       4B1     0.143613  

    Beta Virtual:                                                         

       9B2     0.273487    12A1     0.275499    13A1     0.312975  
      10B2     0.342780    14A1     0.344717     5B1     0.344813  
       3A2     0.346928    11B2     0.356447     6B1     0.357997  
      15A1     0.404855    16A1     0.445271    12B2     0.456587  
      17A1     0.496098    13B2     0.519734     7B1     0.538504  
       4A2     0.563349    18A1     0.563836    14B2     0.581720  
      19A1     0.602809     8B1     0.613010    20A1     0.617100  
      15B2     0.618518     5A2     0.642578     9B1     0.658280  
      16B2     0.664406    21A1     0.705144     6A2     0.708068  
      22A1     0.724100    17B2     0.726256    10B1     0.792126  
      23A1     0.825754     7A2     0.867248    18B2     0.877517  
      24A1     0.879484    25A1     0.890243    11B1     0.893261  
      19B2     0.893348    26A1     0.904180    12B1     0.918930  
       8A2     0.922001    20B2     0.934304    27A1     0.941351  
      13B1     0.994058    21B2     1.010342    28A1     1.010512  
       9A2     1.029730    29A1     1.076223    22B2     1.077168  
      23B2     1.109243    14B1     1.123067    10A2     1.165020  
      30A1     1.168043    15B1     1.177578    16B1     1.205869  
      31A1     1.221957    11A2     1.229082    24B2     1.234054  
      32A1     1.264343    25B2     1.304228    33A1     1.375870  
      17B1     1.410571    26B2     1.424570    27B2     1.434668  
      12A2     1.437861    34A1     1.465710    13A2     1.473500  
      18B1     1.557915    28B2     1.558037    29B2     1.590994  
      19B1     1.596665    35A1     1.599741    14A2     1.647499  
      36A1     1.682991    37A1     1.731674    30B2     1.775871  
      31B2     1.815926    38A1     1.858379    20B1     2.154139  
      15A2     2.169123    39A1     2.192994    32B2     2.228592  
      40A1     2.231911    21B1     2.234135    41A1     2.280874  
      16A2     2.289243    42A1     2.294055    22B1     2.297961  
      33B2     2.332769    43A1     2.351416    34B2     2.354772  
      17A2     2.371848    44A1     2.396774    23B1     2.405447  
      35B2     2.440141    24B1     2.454900    36B2     2.473305  
      45A1     2.533344    18A2     2.533611    37B2     2.576589  
      25B1     2.586756    26B1     2.594766    19A2     2.603452  
      38B2     2.632723    20A2     2.634896    46A1     2.675012  
      39B2     2.703024    47A1     2.750196    48A1     2.831998  
      27B1     2.834416    21A2     2.835833    40B2     2.935976  
      28B1     2.936157    41B2     2.954044    49A1     3.006155  
      22A2     3.178471    29B1     3.201833    42B2     3.280150  
      50A1     3.287323    51A1     3.395041    43B2     3.485170  
      52A1     3.767133    44B2     4.067896    53A1     5.757784  
      45B2     6.383540    54A1     6.851729  

    Final Occupation by Irrep:
             A1    A2    B1    B2 
    DOCC [    11,    2,    4,    8 ]
    SOCC [     0,    0,    0,    0 ]

  @DF-UKS Final Energy: -1194.45360739406988

   => Energetics <=

    Nuclear Repulsion Energy =            203.8777515116626660
    One-Electron Energy =               -2075.5428628028353160
    Two-Electron Energy =                 733.8454953505029152
    DFT Exchange-Correlation Energy =     -56.6339065367987047
    Empirical Dispersion Energy =          -0.0000849166014700
    VV10 Nonlocal Energy =                  0.0000000000000000
    Total Energy =                      -1194.4536073940701044

  UHF NO Occupations:
  HONO-2 :    3 B1 2.0000000
  HONO-1 :   11 A1 2.0000000
  HONO-0 :    4 B1 2.0000000
  LUNO+0 :    9 B2 0.0000000
  LUNO+1 :   12 A1 0.0000000
  LUNO+2 :    3 A2 0.0000000
  LUNO+3 :   10 B2 0.0000000


Computation Completed


Properties will be evaluated at   0.000000,   0.000000,   0.000000 [a0]

Properties computed using the SCF density matrix

  Nuclear Dipole Moment: [e a0]
     X:     0.0000      Y:     0.0000      Z:     0.0000

  Electronic Dipole Moment: [e a0]
     X:     0.0000      Y:     0.0000      Z:    -0.9254

  Dipole Moment: [e a0]
     X:     0.0000      Y:     0.0000      Z:    -0.9254     Total:     0.9254

  Dipole Moment: [D]
     X:     0.0000      Y:     0.0000      Z:    -2.3521     Total:     2.3521


*** tstop() called on c1-4.compute.lan at Tue Feb  2 11:30:10 2021
Module time:
	user time   =      20.88 seconds =       0.35 minutes
	system time =       0.22 seconds =       0.00 minutes
	total time  =         21 seconds =       0.35 minutes
Total time:
	user time   =      86.95 seconds =       1.45 minutes
	system time =       1.37 seconds =       0.02 minutes
	total time  =         89 seconds =       1.48 minutes

*** tstart() called on c1-4.compute.lan
*** at Tue Feb  2 11:30:10 2021


         ------------------------------------------------------------
                                   SCF GRAD                          
                          Rob Parrish, Justin Turney,                
                       Andy Simmonett, and Alex Sokolov              
         ------------------------------------------------------------

  ==> Geometry <==

    Molecular point group: c2v
    Full point group: C2v

    Geometry (in Angstrom), charge = -2, multiplicity = 1:

       Center              X                  Y                   Z               Mass       
    ------------   -----------------  -----------------  -----------------  -----------------
         S            0.000000000000     0.000000000000    -0.706711331439    31.972071174400
         S            0.000000000000    -1.388513073517     0.353355665719    31.972071174400
         S            0.000000000000     1.388513073517     0.353355665719    31.972071174400

  Nuclear repulsion =  203.877751511662666

  ==> Basis Set <==

  Basis Set: AUG-CC-PVTZ
    Blend: AUG-CC-PVTZ
    Number of shells: 48
    Number of basis function: 150
    Number of Cartesian functions: 177
    Spherical Harmonics?: true
    Max angular momentum: 3

  ==> DFJKGrad: Density-Fitted SCF Gradients <==

    Gradient:                    1
    J tasked:                  Yes
    K tasked:                  Yes
    wK tasked:                 Yes
    Omega:               2.000E-01
    OpenMP threads:              1
    Integrals threads:           1
    Memory [MiB]:             7152
    Schwarz Cutoff:          0E+00
    Fitting Condition:       1E-10

   => Auxiliary Basis Set <=

  Basis Set: (AUG-CC-PVTZ AUX)
    Blend: AUG-CC-PVTZ-JKFIT
    Number of shells: 126
    Number of basis function: 438
    Number of Cartesian functions: 540
    Spherical Harmonics?: true
    Max angular momentum: 4

  ==> DFT Potential <==

   => Composite Functional: WB97X-D <= 

    wB97X-D Hyb-GGA Exchange-Correlation Functional

    J.-D. Chai and M. Head-Gordon, Phys. Chem. Chem. Phys. 10, 6615 (2008)

    Deriv               =              1
    GGA                 =           TRUE
    Meta                =          FALSE

    Exchange Hybrid     =           TRUE
    MP2 Hybrid          =          FALSE

   => Exchange-Correlation Functionals <=

    1.0000   wB97D range-separated functional

   => Exact (HF) Exchange <=

    0.7780            HF,LR [omega = 0.2000]
    0.2220               HF 

   => Molecular Quadrature <=

    Radial Scheme          =       TREUTLER
    Pruning Scheme         =           NONE
    Nuclear Scheme         =       TREUTLER

    BS radius alpha        =              1
    Pruning alpha          =              1
    Radial Points          =             75
    Spherical Points       =            302
    Total Points           =          65848
    Total Blocks           =            595
    Max Points             =            256
    Max Functions          =            150
    Weights Tolerance      =       1.00E-15


  -Total Gradient:
     Atom            X                  Y                   Z
    ------   -----------------  -----------------  -----------------
       1        0.000000000000     0.000000000000     0.259779177715
       2       -0.000000000000     0.206160149197    -0.129827774185
       3        0.000000000000    -0.206160149197    -0.129827774185


*** tstop() called on c1-4.compute.lan at Tue Feb  2 11:30:20 2021
Module time:
	user time   =      10.21 seconds =       0.17 minutes
	system time =       0.26 seconds =       0.00 minutes
	total time  =         10 seconds =       0.17 minutes
Total time:
	user time   =      97.16 seconds =       1.62 minutes
	system time =       1.63 seconds =       0.03 minutes
	total time  =         99 seconds =       1.65 minutes

			-----------------------------------------
			 OPTKING 2.0: for geometry optimizations 
			  - R.A. King,  Bethel University        
			-----------------------------------------

	Previous internal coordinate definitions found.
	---Fragment 1 Geometry and Gradient---
	 S           0.0000000000        0.0000000000       -1.3354908662
	 S           0.0000000000       -2.6239094306        0.6677454331
	 S           0.0000000000        2.6239094306        0.6677454331
	             0.0000000000        0.0000000000        0.2597791777
	            -0.0000000000        0.2061601492       -0.1298277742
	             0.0000000000       -0.2061601492       -0.1298277742

	---Fragment 1 Intrafragment Coordinates---
	 - Coordinate -           - BOHR/RAD -       - ANG/DEG -
	 R(1,2)           =         3.301190	       1.746915
	 R(1,3)           =         3.301190	       1.746915
	 R(2,3)           =         5.247819	       2.777026
	 B(1,2,3)         =         0.652057	      37.360099
	 B(1,3,2)         =         0.652057	      37.360099
	 B(2,1,3)         =         1.837479	     105.279803

	Current energy   :     -1194.4536073941

	Energy change for the previous step:
		Projected    :        -0.2443047682
		Actual       :        -0.1980505097

	Performing BFGS update.
	Previous computed or guess Hessian on step 1.
	Steps to be used in Hessian update: 2 1
	Taking RFO optimization step.
	Going to follow RFO solution 1.
	Using RFO vector 1.
	Norm of target step-size    0.34300
	Projected energy change by RFO approximation:        -0.0922167890

	Back-transformation to cartesian coordinates...
	Successfully converged to displaced geometry.

	--- Internal Coordinate Step in ANG or DEG, aJ/ANG or AJ/DEG ---
	 ---------------------------------------------------------------------------
	   Coordinate                Previous        Force       Change         New 
	   ----------                --------       ------       ------       ------
	    1 R(1,2)          =      1.746915     1.359919     0.111906     1.858821
	    2 R(1,3)          =      1.746915     1.359919     0.111906     1.858821
	    3 R(2,3)          =      2.777026     0.804418     0.058464     2.835491
	    4 B(1,2,3)        =     37.360099     0.003129     2.936017    40.296116
	    5 B(1,3,2)        =     37.360099     0.003129     2.936017    40.296116
	    6 B(2,1,3)        =    105.279803    -0.006258    -5.872035    99.407768
	 ---------------------------------------------------------------------------
	Successfully symmetrized geometry.

  ==> Convergence Check <==

  Measures of convergence in internal coordinates in au.
  Criteria marked as inactive (o), active & met (*), and active & unmet ( ).
  ---------------------------------------------------------------------------------------------
   Step     Total Energy     Delta E     MAX Force     RMS Force      MAX Disp      RMS Disp   
  ---------------------------------------------------------------------------------------------
    Convergence Criteria    1.00e-06 *    3.00e-04 *             o    1.20e-03 *             o
  ---------------------------------------------------------------------------------------------
      3   -1194.45360739   -1.98e-01      1.65e-01      1.11e-01 o    2.11e-01      1.40e-01 o  ~
  ---------------------------------------------------------------------------------------------

	Writing optimization data to binary file.
	Structure for next step:
	Cartesian Geometry (in Angstrom)
	    S     0.0000000000   0.0000000000  -0.8014468101
	    S     0.0000000000  -1.4177452836   0.4007234050
	    S     0.0000000000   1.4177452836   0.4007234050
			--------------------------
			 OPTKING Finished Execution 
			--------------------------

    Structure for next step:
    Molecular point group: c2v
    Full point group: C2v

    Geometry (in Angstrom), charge = -2, multiplicity = 1:

    S       
    S             1          R1
    S             1          R2      2          A1

    A1        =   99.4077681563
    R1        =    1.8588208473
    R2        =    1.8588208473

gradient() will perform analytic gradient computation.

*** tstart() called on c1-4.compute.lan
*** at Tue Feb  2 11:30:20 2021

   => Loading Basis Set <=

    Name: AUG-CC-PVTZ
    Role: ORBITAL
    Keyword: BASIS
    atoms 1-3 entry S          line   906 file /apps/gb/PSI4/1.4.0/share/psi4/basis/aug-cc-pvtz.gbs 

   => WB97X-D: Empirical Dispersion <=

    Chai and Head-Gordon Dispersion Correction
    Chai, J.-D.; Head-Gordon, M. (2010), J. Chem. Phys., 132: 6615-6620

        s6 =       1.000000


         ---------------------------------------------------------
                                   SCF
               by Justin Turney, Rob Parrish, Andy Simmonett
                          and Daniel G. A. Smith
                              UKS Reference
                        1 Threads,   9536 MiB Core
         ---------------------------------------------------------

  ==> Geometry <==

    Molecular point group: c2v
    Full point group: C2v

    Geometry (in Angstrom), charge = -2, multiplicity = 1:

       Center              X                  Y                   Z               Mass       
    ------------   -----------------  -----------------  -----------------  -----------------
         S            0.000000000000     0.000000000000    -0.801446813235    31.972071174400
         S            0.000000000000    -1.417745289134     0.400723406617    31.972071174400
         S            0.000000000000     1.417745289134     0.400723406617    31.972071174400

  Running in c2v symmetry.

  Rotational constants: A =      0.54725  B =      0.13116  C =      0.10580 [cm^-1]
  Rotational constants: A =  16406.11519  B =   3932.05883  C =   3171.85850 [MHz]
  Nuclear repulsion =  193.534730259534626

  Charge       = -2
  Multiplicity = 1
  Electrons    = 50
  Nalpha       = 25
  Nbeta        = 25

  ==> Algorithm <==

  SCF Algorithm Type is DF.
  DIIS enabled.
  MOM disabled.
  Fractional occupation disabled.
  Guess Type is READ.
  Energy threshold   = 1.00e-08
  Density threshold  = 1.00e-08
  Integral threshold = 0.00e+00

  ==> Primary Basis <==

  Basis Set: AUG-CC-PVTZ
    Blend: AUG-CC-PVTZ
    Number of shells: 48
    Number of basis function: 150
    Number of Cartesian functions: 177
    Spherical Harmonics?: true
    Max angular momentum: 3

  ==> DFT Potential <==

   => Composite Functional: WB97X-D <= 

    wB97X-D Hyb-GGA Exchange-Correlation Functional

    J.-D. Chai and M. Head-Gordon, Phys. Chem. Chem. Phys. 10, 6615 (2008)

    Deriv               =              1
    GGA                 =           TRUE
    Meta                =          FALSE

    Exchange Hybrid     =           TRUE
    MP2 Hybrid          =          FALSE

   => Exchange-Correlation Functionals <=

    1.0000   wB97D range-separated functional

   => Exact (HF) Exchange <=

    0.7780            HF,LR [omega = 0.2000]
    0.2220               HF 

   => Molecular Quadrature <=

    Radial Scheme          =       TREUTLER
    Pruning Scheme         =           NONE
    Nuclear Scheme         =       TREUTLER

    BS radius alpha        =              1
    Pruning alpha          =              1
    Radial Points          =             75
    Spherical Points       =            302
    Total Points           =          65920
    Total Blocks           =            597
    Max Points             =            256
    Max Functions          =            150
    Weights Tolerance      =       1.00E-15

   => Loading Basis Set <=

    Name: (AUG-CC-PVTZ AUX)
    Role: JKFIT
    Keyword: DF_BASIS_SCF
    atoms 1-3 entry S          line   730 file /apps/gb/PSI4/1.4.0/share/psi4/basis/aug-cc-pvtz-jkfit.gbs 

   => Loading Basis Set <=

    Name: AUG-CC-PVTZ
    Role: ORBITAL
    Keyword: BASIS
    atoms 1-3 entry S          line   906 file /apps/gb/PSI4/1.4.0/share/psi4/basis/aug-cc-pvtz.gbs 

  Reading orbitals from file 180, no projection.

  ==> Pre-Iterations <==

   -------------------------------------------------------
    Irrep   Nso     Nmo     Nalpha   Nbeta   Ndocc  Nsocc
   -------------------------------------------------------
     A1        54      54       0       0       0       0
     A2        22      22       0       0       0       0
     B1        29      29       0       0       0       0
     B2        45      45       0       0       0       0
   -------------------------------------------------------
    Total     150     150      25      25      25       0
   -------------------------------------------------------

  ==> Integral Setup <==

  ==> DiskDFJK: Density-Fitted J/K Matrices <==

    J tasked:                  Yes
    K tasked:                  Yes
    wK tasked:                 Yes
    Omega:               2.000E-01
    OpenMP threads:              1
    Integrals threads:           1
    Memory [MiB]:             6881
    Algorithm:                Core
    Integral Cache:           NONE
    Schwarz Cutoff:          1E-12
    Fitting Condition:       1E-10

   => Auxiliary Basis Set <=

  Basis Set: (AUG-CC-PVTZ AUX)
    Blend: AUG-CC-PVTZ-JKFIT
    Number of shells: 126
    Number of basis function: 438
    Number of Cartesian functions: 540
    Spherical Harmonics?: true
    Max angular momentum: 4

  Cached 100.0% of DFT collocation blocks in 0.265 [GiB].

  Minimum eigenvalue in the overlap matrix is 1.6074902423E-04.
  Using Symmetric Orthogonalization.

  SCF Guess: Orbitals guess was supplied from a previous computation.

  ==> Iterations <==

                           Total Energy        Delta E     RMS |[F,P]|

   @DF-UKS iter   0: -1194.44881126880455   -1.19445e+03   6.57399e-03 
   @DF-UKS iter   1: -1194.51970358594872   -7.08923e-02   6.54440e-04 DIIS
   @DF-UKS iter   2: -1194.52125445249317   -1.55087e-03   4.57425e-04 DIIS
   @DF-UKS iter   3: -1194.52198018170657   -7.25729e-04   1.31791e-04 DIIS
   @DF-UKS iter   4: -1194.52208400885320   -1.03827e-04   3.85944e-05 DIIS
   @DF-UKS iter   5: -1194.52213192123691   -4.79124e-05   1.36073e-05 DIIS
   @DF-UKS iter   6: -1194.52213968054548   -7.75931e-06   7.85351e-06 DIIS
   @DF-UKS iter   7: -1194.52214136492694   -1.68438e-06   3.34147e-06 DIIS
   @DF-UKS iter   8: -1194.52214168545106   -3.20524e-07   1.13700e-06 DIIS
   @DF-UKS iter   9: -1194.52214172754384   -4.20928e-08   4.37717e-07 DIIS
[...]
   @DF-UKS iter   5: -1194.58106994042464   -2.46655e-09   2.19340e-07 DIIS
   @DF-UKS iter   6: -1194.58106994089053   -4.65889e-10   5.81772e-08 DIIS
   @DF-UKS iter   7: -1194.58106994099171   -1.01181e-10   1.90328e-08 DIIS
   @DF-UKS iter   8: -1194.58106994100172   -1.00044e-11   5.53920e-09 DIIS
  Energy and wave function converged.


  ==> Post-Iterations <==

   @Spin Contamination Metric:   1.421085472E-14
   @S^2 Expected:                0.000000000E+00
   @S^2 Observed:                1.421085472E-14
   @S   Expected:                0.000000000E+00
   @S   Observed:                0.000000000E+00

    Orbital Energies [Eh]
    ---------------------

    Alpha Occupied:                                                       

       1A1   -88.728968     1B2   -88.671809     2A1   -88.671807  
       3A1    -7.731670     2B2    -7.678239     4A1    -7.678234  
       3B2    -5.682117     5A1    -5.678612     1B1    -5.671630  
       6A1    -5.629491     4B2    -5.629491     7A1    -5.621399  
       5B2    -5.621398     2B1    -5.620626     1A2    -5.620626  
       8A1    -0.511777     6B2    -0.399774     9A1    -0.294714  
       7B2    -0.088464    10A1    -0.066615     3B1    -0.050447  
       2A2     0.036017    11A1     0.043139     8B2     0.049404  
       4B1     0.098735  

    Alpha Virtual:                                                        

       9B2     0.273869    12A1     0.278578    13A1     0.321787  
      14A1     0.344656     5B1     0.345780    10B2     0.346926  
       3A2     0.354109     6B1     0.363740    11B2     0.364384  
      15A1     0.386031    16A1     0.406335    12B2     0.415309  
      17A1     0.479186    13B2     0.486925     7B1     0.529756  
       4A2     0.552080    18A1     0.553059    14B2     0.586134  
      19A1     0.592052    15B2     0.596255     8B1     0.610021  
      20A1     0.614196     5A2     0.625489     9B1     0.655226  
      21A1     0.660890    16B2     0.662341    17B2     0.684139  
       6A2     0.700815    22A1     0.728314    10B1     0.803826  
      23A1     0.828736     7A2     0.880552    24A1     0.880579  
      18B2     0.895992    25A1     0.896485    19B2     0.911146  
       8A2     0.912767    11B1     0.918311    26A1     0.927376  
      12B1     0.933097    20B2     0.939893    27A1     0.968323  
      13B1     0.995338    21B2     0.996256    28A1     1.002342  
       9A2     1.017958    22B2     1.022372    29A1     1.032230  
      23B2     1.045039    14B1     1.061881    30A1     1.103112  
      15B1     1.106378    10A2     1.106934    31A1     1.151611  
      24B2     1.156639    16B1     1.160187    11A2     1.162958  
      32A1     1.176825    25B2     1.201117    33A1     1.223305  
      26B2     1.296262    12A2     1.324529    17B1     1.344794  
      34A1     1.376500    27B2     1.391765    13A2     1.393683  
      35A1     1.472008    18B1     1.480835    28B2     1.505510  
      29B2     1.522159    36A1     1.552862    19B1     1.565537  
      14A2     1.573076    37A1     1.660011    30B2     1.661404  
      31B2     1.762259    38A1     1.882619    39A1     2.197006  
      20B1     2.207784    15A2     2.219554    32B2     2.236188  
      40A1     2.258727    16A2     2.263536    21B1     2.271096  
      33B2     2.282472    41A1     2.283306    42A1     2.350297  
      22B1     2.356100    34B2     2.371587    43A1     2.408865  
      17A2     2.409714    23B1     2.410497    35B2     2.413722  
      18A2     2.428028    36B2     2.443583    44A1     2.470852  
      24B1     2.471639    25B1     2.489591    45A1     2.522287  
      37B2     2.530485    26B1     2.553207    46A1     2.559379  
      19A2     2.565803    38B2     2.576306    20A2     2.640015  
      47A1     2.644218    21A2     2.645379    48A1     2.652118  
      27B1     2.652527    39B2     2.656997    28B1     2.701456  
      40B2     2.741034    49A1     2.754176    41B2     2.794495  
      50A1     2.820157    42B2     2.825442    51A1     2.915091  
      22A2     2.929412    29B1     2.930142    43B2     3.022558  
      52A1     3.958852    44B2     3.986862    53A1     4.951188  
      45B2     5.501825    54A1     6.018701  

    Beta Occupied:                                                        

       1A1   -88.728968     1B2   -88.671809     2A1   -88.671807  
       3A1    -7.731670     2B2    -7.678239     4A1    -7.678234  
       3B2    -5.682117     5A1    -5.678612     1B1    -5.671630  
       6A1    -5.629491     4B2    -5.629491     7A1    -5.621399  
       5B2    -5.621398     2B1    -5.620626     1A2    -5.620626  
       8A1    -0.511777     6B2    -0.399774     9A1    -0.294714  
       7B2    -0.088464    10A1    -0.066615     3B1    -0.050447  
       2A2     0.036017    11A1     0.043139     8B2     0.049404  
       4B1     0.098735  

    Beta Virtual:                                                         

       9B2     0.273869    12A1     0.278578    13A1     0.321787  
      14A1     0.344656     5B1     0.345780    10B2     0.346926  
       3A2     0.354109     6B1     0.363740    11B2     0.364384  
      15A1     0.386031    16A1     0.406335    12B2     0.415309  
      17A1     0.479186    13B2     0.486925     7B1     0.529756  
       4A2     0.552080    18A1     0.553059    14B2     0.586134  
      19A1     0.592052    15B2     0.596255     8B1     0.610021  
      20A1     0.614196     5A2     0.625489     9B1     0.655226  
      21A1     0.660890    16B2     0.662341    17B2     0.684139  
       6A2     0.700815    22A1     0.728314    10B1     0.803826  
      23A1     0.828736     7A2     0.880552    24A1     0.880579  
      18B2     0.895992    25A1     0.896485    19B2     0.911146  
       8A2     0.912767    11B1     0.918311    26A1     0.927376  
      12B1     0.933097    20B2     0.939893    27A1     0.968323  
      13B1     0.995338    21B2     0.996256    28A1     1.002342  
       9A2     1.017958    22B2     1.022372    29A1     1.032230  
      23B2     1.045039    14B1     1.061881    30A1     1.103112  
      15B1     1.106378    10A2     1.106934    31A1     1.151611  
      24B2     1.156639    16B1     1.160187    11A2     1.162958  
      32A1     1.176825    25B2     1.201117    33A1     1.223305  
      26B2     1.296262    12A2     1.324529    17B1     1.344794  
      34A1     1.376500    27B2     1.391765    13A2     1.393683  
      35A1     1.472008    18B1     1.480835    28B2     1.505510  
      29B2     1.522159    36A1     1.552862    19B1     1.565537  
      14A2     1.573076    37A1     1.660011    30B2     1.661404  
      31B2     1.762259    38A1     1.882619    39A1     2.197006  
      20B1     2.207784    15A2     2.219554    32B2     2.236188  
      40A1     2.258727    16A2     2.263536    21B1     2.271096  
      33B2     2.282472    41A1     2.283306    42A1     2.350297  
      22B1     2.356100    34B2     2.371587    43A1     2.408865  
      17A2     2.409714    23B1     2.410497    35B2     2.413722  
      18A2     2.428028    36B2     2.443583    44A1     2.470852  
      24B1     2.471639    25B1     2.489591    45A1     2.522287  
      37B2     2.530485    26B1     2.553207    46A1     2.559379  
      19A2     2.565803    38B2     2.576306    20A2     2.640015  
      47A1     2.644218    21A2     2.645379    48A1     2.652118  
      27B1     2.652527    39B2     2.656997    28B1     2.701456  
      40B2     2.741034    49A1     2.754176    41B2     2.794495  
      50A1     2.820157    42B2     2.825442    51A1     2.915091  
      22A2     2.929412    29B1     2.930142    43B2     3.022558  
      52A1     3.958852    44B2     3.986862    53A1     4.951188  
      45B2     5.501825    54A1     6.018701  

    Final Occupation by Irrep:
             A1    A2    B1    B2 
    DOCC [    11,    2,    4,    8 ]
    SOCC [     0,    0,    0,    0 ]

  @DF-UKS Final Energy: -1194.58106994100172

   => Energetics <=

    Nuclear Repulsion Energy =            166.8194961978646518
    One-Electron Energy =               -2001.7616868653424262
    Two-Electron Energy =                 696.7750486879567688
    DFT Exchange-Correlation Energy =     -56.4136511112271890
    Empirical Dispersion Energy =          -0.0002768502533996
    VV10 Nonlocal Energy =                  0.0000000000000000
    Total Energy =                      -1194.5810699410014877

  UHF NO Occupations:
  HONO-2 :    7 B2 2.0000000
  HONO-1 :   11 A1 2.0000000
  HONO-0 :    8 B2 2.0000000
  LUNO+0 :   12 A1 0.0000000
  LUNO+1 :    9 B2 0.0000000
  LUNO+2 :   13 A1 0.0000000
  LUNO+3 :   10 B2 0.0000000


Computation Completed


Properties will be evaluated at   0.000000,   0.000000,   0.000000 [a0]

Properties computed using the SCF density matrix

  Nuclear Dipole Moment: [e a0]
     X:     0.0000      Y:     0.0000      Z:     0.0000

  Electronic Dipole Moment: [e a0]
     X:     0.0000      Y:     0.0000      Z:    -0.7385

  Dipole Moment: [e a0]
     X:     0.0000      Y:     0.0000      Z:    -0.7385     Total:     0.7385

  Dipole Moment: [D]
     X:     0.0000      Y:     0.0000      Z:    -1.8771     Total:     1.8771


*** tstop() called on c1-4.compute.lan at Tue Feb  2 11:34:26 2021
Module time:
	user time   =      14.56 seconds =       0.24 minutes
	system time =       0.12 seconds =       0.00 minutes
	total time  =         15 seconds =       0.25 minutes
Total time:
	user time   =     339.46 seconds =       5.66 minutes
	system time =       4.88 seconds =       0.08 minutes
	total time  =        345 seconds =       5.75 minutes

*** tstart() called on c1-4.compute.lan
*** at Tue Feb  2 11:34:26 2021


         ------------------------------------------------------------
                                   SCF GRAD                          
                          Rob Parrish, Justin Turney,                
                       Andy Simmonett, and Alex Sokolov              
         ------------------------------------------------------------

  ==> Geometry <==

    Molecular point group: c2v
    Full point group: C2v

    Geometry (in Angstrom), charge = -2, multiplicity = 1:

       Center              X                  Y                   Z               Mass       
    ------------   -----------------  -----------------  -----------------  -----------------
         S            0.000000000000     0.000000000000    -0.777858373701    31.972071174400
         S            0.000000000000    -1.759638859260     0.388929186851    31.972071174400
         S            0.000000000000     1.759638859260     0.388929186851    31.972071174400

  Nuclear repulsion =  166.819496197864652

  ==> Basis Set <==

  Basis Set: AUG-CC-PVTZ
    Blend: AUG-CC-PVTZ
    Number of shells: 48
    Number of basis function: 150
    Number of Cartesian functions: 177
    Spherical Harmonics?: true
    Max angular momentum: 3

  ==> DFJKGrad: Density-Fitted SCF Gradients <==

    Gradient:                    1
    J tasked:                  Yes
    K tasked:                  Yes
    wK tasked:                 Yes
    Omega:               2.000E-01
    OpenMP threads:              1
    Integrals threads:           1
    Memory [MiB]:             7152
    Schwarz Cutoff:          0E+00
    Fitting Condition:       1E-10

   => Auxiliary Basis Set <=

  Basis Set: (AUG-CC-PVTZ AUX)
    Blend: AUG-CC-PVTZ-JKFIT
    Number of shells: 126
    Number of basis function: 438
    Number of Cartesian functions: 540
    Spherical Harmonics?: true
    Max angular momentum: 4

  ==> DFT Potential <==

   => Composite Functional: WB97X-D <= 

    wB97X-D Hyb-GGA Exchange-Correlation Functional

    J.-D. Chai and M. Head-Gordon, Phys. Chem. Chem. Phys. 10, 6615 (2008)

    Deriv               =              1
    GGA                 =           TRUE
    Meta                =          FALSE

    Exchange Hybrid     =           TRUE
    MP2 Hybrid          =          FALSE

   => Exchange-Correlation Functionals <=

    1.0000   wB97D range-separated functional

   => Exact (HF) Exchange <=

    0.7780            HF,LR [omega = 0.2000]
    0.2220               HF 

   => Molecular Quadrature <=

    Radial Scheme          =       TREUTLER
    Pruning Scheme         =           NONE
    Nuclear Scheme         =       TREUTLER

    BS radius alpha        =              1
    Pruning alpha          =              1
    Radial Points          =             75
    Spherical Points       =            302
    Total Points           =          65892
    Total Blocks           =            600
    Max Points             =            256
    Max Functions          =            150
    Weights Tolerance      =       1.00E-15


  -Total Gradient:
     Atom            X                  Y                   Z
    ------   -----------------  -----------------  -----------------
       1       -0.000000000000     0.000000000000    -0.000040224075
       2        0.000000000000    -0.000031040813     0.000005502541
       3       -0.000000000000     0.000031040813     0.000005502541


*** tstop() called on c1-4.compute.lan at Tue Feb  2 11:34:37 2021
Module time:
	user time   =      10.69 seconds =       0.18 minutes
	system time =       0.19 seconds =       0.00 minutes
	total time  =         11 seconds =       0.18 minutes
Total time:
	user time   =     350.15 seconds =       5.84 minutes
	system time =       5.07 seconds =       0.08 minutes
	total time  =        356 seconds =       5.93 minutes

			-----------------------------------------
			 OPTKING 2.0: for geometry optimizations 
			  - R.A. King,  Bethel University        
			-----------------------------------------

	Previous internal coordinate definitions found.
	---Fragment 1 Geometry and Gradient---
	 S           0.0000000000        0.0000000000       -1.4699392907
	 S           0.0000000000       -3.3252355237        0.7349696453
	 S           0.0000000000        3.3252355237        0.7349696453
	            -0.0000000000        0.0000000000       -0.0000402241
	             0.0000000000       -0.0000310408        0.0000055025
	            -0.0000000000        0.0000310408        0.0000055025

	---Fragment 1 Intrafragment Coordinates---
	 - Coordinate -           - BOHR/RAD -       - ANG/DEG -
	 R(1,2)           =         3.989839	       2.111332
	 R(1,3)           =         3.989839	       2.111332
	 R(2,3)           =         6.650471	       3.519278
	 B(1,2,3)         =         0.585518	      33.547703
	 B(1,3,2)         =         0.585518	      33.547703
	 B(2,1,3)         =         1.970557	     112.904594

	Current energy   :     -1194.5810699410

	Energy change for the previous step:
		Projected    :        -0.0000028193
		Actual       :        -0.0000011997

	Performing BFGS update.
	Previous computed or guess Hessian on step 1.
	Steps to be used in Hessian update: 11 10
	Taking RFO optimization step.
	Going to follow RFO solution 1.
	Using RFO vector 1.
	Norm of target step-size    0.00066
	Projected energy change by RFO approximation:        -0.0000000249

	Back-transformation to cartesian coordinates...
	Successfully converged to displaced geometry.

	--- Internal Coordinate Step in ANG or DEG, aJ/ANG or AJ/DEG ---
	 ---------------------------------------------------------------------------
	   Coordinate                Previous        Force       Change         New 
	   ----------                --------       ------       ------       ------
	    1 R(1,2)          =      2.111332    -0.000181    -0.000122     2.111209
	    2 R(1,3)          =      2.111332    -0.000181    -0.000122     2.111209
	    3 R(2,3)          =      3.519278    -0.000122    -0.000297     3.518981
	    4 B(1,2,3)        =     33.547703    -0.000000     0.002285    33.549987
	    5 B(1,3,2)        =     33.547703    -0.000000     0.002285    33.549987
	    6 B(2,1,3)        =    112.904594     0.000001    -0.004569   112.900025
	 ---------------------------------------------------------------------------
	Successfully symmetrized geometry.

  ==> Convergence Check <==

  Measures of convergence in internal coordinates in au.
  Criteria marked as inactive (o), active & met (*), and active & unmet ( ).
  ---------------------------------------------------------------------------------------------
   Step     Total Energy     Delta E     MAX Force     RMS Force      MAX Disp      RMS Disp   
  ---------------------------------------------------------------------------------------------
    Convergence Criteria    1.00e-06 *    3.00e-04 *             o    1.20e-03 *             o
  ---------------------------------------------------------------------------------------------
     12   -1194.58106994   -1.20e-06      2.20e-05 *    1.49e-05 o    5.62e-04 *    2.68e-04 o  ~
  ---------------------------------------------------------------------------------------------


  **** Optimization is complete! (in 12 steps) ****

  ==> Optimization Summary <==

  Measures of convergence in internal coordinates in au.
  --------------------------------------------------------------------------------------------------------------- ~
   Step         Total Energy             Delta E       MAX Force       RMS Force        MAX Disp        RMS Disp  ~
  --------------------------------------------------------------------------------------------------------------- ~
      1   -1194.031728554394  -1194.031728554394      0.46937188      0.34726091      0.19271725      0.13457764  ~
      2   -1194.255556884326     -0.223828329932      0.32294442      0.23067717      0.28874359      0.19915403  ~
      3   -1194.453607394070     -0.198050509744      0.16506433      0.11118499      0.21147217      0.13988230  ~
      4   -1194.522141733933     -0.068534339863      0.08439647      0.05654760      0.22746597      0.14537473  ~
      5   -1194.556048330461     -0.033906596528      0.03751583      0.02537689      0.24139870      0.11785822  ~
      6   -1194.568852814262     -0.012804483801      0.02547914      0.01367195      0.28731601      0.13171629  ~
      7   -1194.576484425749     -0.007631611487      0.01496293      0.00675827      0.32379848      0.14530981  ~
      8   -1194.580329371922     -0.003844946173      0.00540503      0.00300035      0.16977589      0.07622739  ~
      9   -1194.581003766142     -0.000674394220      0.00192151      0.00150555      0.03620755      0.01699102  ~
     10   -1194.581057555977     -0.000053789835      0.00110312      0.00077551      0.00767222      0.00520903  ~
     11   -1194.581068741281     -0.000011185304      0.00033990      0.00022881      0.00243572      0.00163729  ~
     12   -1194.581069941002     -0.000001199721      0.00002197      0.00001489      0.00056151      0.00026830  ~
  --------------------------------------------------------------------------------------------------------------- ~

	Writing optimization data to binary file.
	Final energy is  -1194.5810699410017
	Final (previous) structure:
	Cartesian Geometry (in Angstrom)
	    S     0.0000000000   0.0000000000  -0.7778583706
	    S     0.0000000000  -1.7596388523   0.3889291853
	    S     0.0000000000   1.7596388523   0.3889291853
	Saving final (previous) structure.
			--------------------------
			 OPTKING Finished Execution 
			--------------------------

    Final optimized geometry and variables:
    Molecular point group: c2v
    Full point group: C2v

    Geometry (in Angstrom), charge = -2, multiplicity = 1:

    S       
    S             1          R1
    S             1          R2      2          A1

    A1        =  112.9045942047
    R1        =    2.1113318371
    R2        =    2.1113318371

	Removing binary optimization data file.
	Cleaning optimization helper files.

    Psi4 stopped on: Tuesday, 02 February 2021 11:34AM
    Psi4 wall time for execution: 0:05:55.89

*** Psi4 exiting successfully. Buy a developer a beer!
