
    -----------------------------------------------------------------------
          Psi4: An Open-Source Ab Initio Electronic Structure Package
                               Psi4 1.4a2.dev191 

                         Git: Rev {master} 0ab5346 


    R. M. Parrish, L. A. Burns, D. G. A. Smith, A. C. Simmonett,
    A. E. DePrince III, E. G. Hohenstein, U. Bozkaya, A. Yu. Sokolov,
    R. Di Remigio, R. M. Richard, J. F. Gonthier, A. M. James,
    H. R. McAlexander, A. Kumar, M. Saitow, X. Wang, B. P. Pritchard,
    P. Verma, H. F. Schaefer III, K. Patkowski, R. A. King, E. F. Valeev,
    F. A. Evangelista, J. M. Turney, T. D. Crawford, and C. D. Sherrill,
    J. Chem. Theory Comput. 13(7) pp 3185--3197 (2017).
    (doi: 10.1021/acs.jctc.7b00174)


                         Additional Contributions by
    P. Kraus, H. Kruse, M. H. Lechner, M. C. Schieber, R. A. Shaw,
    A. Alenaizan, R. Galvelis, Z. L. Glick, S. Lehtola, and J. P. Misiewicz

    -----------------------------------------------------------------------


    Psi4 started on: Tuesday, 02 February 2021 12:10PM

    Process ID: 67690
    Host:       c4-11.compute.lan
    PSIDATADIR: /apps/gb/PSI4/1.4.0/share/psi4
    Memory:     500.0 MiB
    Threads:    1
    
  ==> Input File <==

--------------------------------------------------------------------------
memory 10 GB

molecule  {
-1 4
S
S 1 r1
r1 = 2.0
}

set {
reference uks
basis aug-cc-pvtz
g_convergence gau_verytight
dft_spherical_points 590
dft_radial_points 99
}

optimize('wb97m-v')
frequencies('wb97m-v')

--------------------------------------------------------------------------

  Memory set to   9.313 GiB by Python driver.
gradient() will perform gradient computation by finite difference of analytic energies.

         ----------------------------------------------------------
                                   FINDIF
                     R. A. King and Jonathon Misiewicz
         ---------------------------------------------------------

  Using finite-differences of energies to determine gradients.
    Generating geometries for use with 3-point formula.
    Displacement size will be 5.00e-03.
    Number of atoms is 2.
    Number of symmetric SALCs is 1.
    Translations projected? 1. Rotations projected? 1.
    Number of geometries (including reference) is 3.

  //>>>>>>>>>>>>>>>>>>>>>>>>>>>>>>>>>>>//
  //    Loading displacement 1 of 3    //
  //<<<<<<<<<<<<<<<<<<<<<<<<<<<<<<<<<<<//

*** tstart() called on c4-11.compute.lan
*** at Tue Feb  2 12:10:29 2021

   => Loading Basis Set <=

    Name: AUG-CC-PVTZ
    Role: ORBITAL
    Keyword: BASIS
    atoms 1-2 entry S          line   906 file /apps/gb/PSI4/1.4.0/share/psi4/basis/aug-cc-pvtz.gbs 


         ---------------------------------------------------------
                                   SCF
               by Justin Turney, Rob Parrish, Andy Simmonett
                          and Daniel G. A. Smith
                              UKS Reference
                        1 Threads,   9536 MiB Core
         ---------------------------------------------------------

  ==> Geometry <==

    Molecular point group: d2h
    Full point group: D_inf_h

    Geometry (in Angstrom), charge = -1, multiplicity = 4:

       Center              X                  Y                   Z               Mass       
    ------------   -----------------  -----------------  -----------------  -----------------
         S            0.000000000000     0.000000000000    -1.000000000000    31.972071174400
         S            0.000000000000     0.000000000000     1.000000000000    31.972071174400

  Running in d2h symmetry.

  Rotational constants: A = ************  B =      0.26363  C =      0.26363 [cm^-1]
  Rotational constants: A = ************  B =   7903.44495  C =   7903.44495 [MHz]
  Nuclear repulsion =   67.734682965759930

  Charge       = -1
  Multiplicity = 4
  Electrons    = 33
  Nalpha       = 18
  Nbeta        = 15

  ==> Algorithm <==

  SCF Algorithm Type is DF.
  DIIS enabled.
  MOM disabled.
  Fractional occupation disabled.
  Guess Type is SAD.
  Energy threshold   = 1.00e-08
  Density threshold  = 1.00e-08
  Integral threshold = 0.00e+00

  ==> Primary Basis <==

  Basis Set: AUG-CC-PVTZ
    Blend: AUG-CC-PVTZ
    Number of shells: 32
    Number of basis function: 100
    Number of Cartesian functions: 118
    Spherical Harmonics?: true
    Max angular momentum: 3

  ==> DFT Potential <==

   => Composite Functional: WB97M-V <= 

    wB97M-V Hyb-GGA Exchange-Correlation Functional

    N. Mardirossian and M. Head-Gordon, J. Chem. Phys. 144, 214110 (2016)

    Deriv               =              1
    GGA                 =           TRUE
    Meta                =           TRUE

    Exchange Hybrid     =           TRUE
    MP2 Hybrid          =          FALSE

   => Exchange-Correlation Functionals <=

    1.0000   wB97M-V exchange-correlation functional

   => Exact (HF) Exchange <=

    0.8500            HF,LR [omega = 0.3000]
    0.1500               HF 

   => VV10 Non-Local Parameters <=

    VV10 B              =     6.0000E+00
    VV10 C              =     1.0000E-02

   => Molecular Quadrature <=

    Radial Scheme          =       TREUTLER
    Pruning Scheme         =           NONE
    Nuclear Scheme         =       TREUTLER

    BS radius alpha        =              1
    Pruning alpha          =              1
    Radial Points          =             99
    Spherical Points       =            590
    Total Points           =         113384
    Total Blocks           =            986
    Max Points             =            255
    Max Functions          =            100
    Weights Tolerance      =       1.00E-15

   => Loading Basis Set <=

    Name: (AUG-CC-PVTZ AUX)
    Role: JKFIT
    Keyword: DF_BASIS_SCF
    atoms 1-2 entry S          line   730 file /apps/gb/PSI4/1.4.0/share/psi4/basis/aug-cc-pvtz-jkfit.gbs 

  ==> Pre-Iterations <==

   -------------------------------------------------------
    Irrep   Nso     Nmo     Nalpha   Nbeta   Ndocc  Nsocc
   -------------------------------------------------------
     Ag        21      21       0       0       0       0
     B1g        5       5       0       0       0       0
     B2g       12      12       0       0       0       0
     B3g       12      12       0       0       0       0
     Au         5       5       0       0       0       0
     B1u       21      21       0       0       0       0
     B2u       12      12       0       0       0       0
     B3u       12      12       0       0       0       0
   -------------------------------------------------------
    Total     100     100      18      15      15       3
   -------------------------------------------------------

  ==> Integral Setup <==

  ==> DiskDFJK: Density-Fitted J/K Matrices <==

    J tasked:                  Yes
    K tasked:                  Yes
    wK tasked:                 Yes
    Omega:               3.000E-01
    OpenMP threads:              1
    Integrals threads:           1
    Memory [MiB]:             6378
    Algorithm:                Core
    Integral Cache:           NONE
    Schwarz Cutoff:          1E-12
    Fitting Condition:       1E-10

   => Auxiliary Basis Set <=

  Basis Set: (AUG-CC-PVTZ AUX)
    Blend: AUG-CC-PVTZ-JKFIT
    Number of shells: 84
    Number of basis function: 292
    Number of Cartesian functions: 360
    Spherical Harmonics?: true
    Max angular momentum: 4

  Cached 100.0% of DFT collocation blocks in 0.756 [GiB].

  Minimum eigenvalue in the overlap matrix is 2.7190206739E-04.
  Using Symmetric Orthogonalization.

  SCF Guess: Superposition of Atomic Densities via on-the-fly atomic UHF.

  ==> Iterations <==

                           Total Energy        Delta E     RMS |[F,P]|

   @DF-UKS iter SAD:  -795.86916376981208   -7.95869e+02   0.00000e+00 
   @DF-UKS iter   1:  -796.23444375161648   -3.65280e-01   9.59467e-03 DIIS
   @DF-UKS iter   2:  -796.28369940442144   -4.92557e-02   7.41833e-03 DIIS
   @DF-UKS iter   3:  -796.32461140137082   -4.09120e-02   8.03369e-04 DIIS
   @DF-UKS iter   4:  -796.32600607268705   -1.39467e-03   4.30067e-04 DIIS
   @DF-UKS iter   5:  -796.32674831226598   -7.42240e-04   1.52337e-04 DIIS
   @DF-UKS iter   6:  -796.32696176313686   -2.13451e-04   6.28746e-05 DIIS
   @DF-UKS iter   7:  -796.32699472326044   -3.29601e-05   1.25326e-05 DIIS
   @DF-UKS iter   8:  -796.32699555592171   -8.32661e-07   1.49807e-06 DIIS
   @DF-UKS iter   9:  -796.32699556209218   -6.17047e-09   4.09804e-07 DIIS
   @DF-UKS iter  10:  -796.32699556261878   -5.26597e-10   6.82240e-08 DIIS
   @DF-UKS iter  11:  -796.32699556263401   -1.52340e-11   1.27585e-08 DIIS
   @DF-UKS iter  12:  -796.32699556263447   -4.54747e-13   1.47997e-09 DIIS
  Energy and wave function converged.


  ==> Post-Iterations <==

   @Spin Contamination Metric:   1.171172661E-02
   @S^2 Expected:                3.750000000E+00
   @S^2 Observed:                3.761711727E+00
   @S   Expected:                1.500000000E+00
   @S   Observed:                1.500000000E+00

    Orbital Energies [Eh]
    ---------------------

    Alpha Occupied:                                                       

       1B1u  -89.062589     1Ag   -89.062585     2Ag    -7.972968  
       2B1u   -7.972892     1B3g   -5.882164     1B2g   -5.882164  
       1B2u   -5.882163     1B3u   -5.882163     3Ag    -5.880726  
       3B1u   -5.880365     4Ag    -0.742278     4B1u   -0.566595  
       5Ag    -0.304342     2B2u   -0.277041     2B3u   -0.277041  
       2B3g   -0.154882     2B2g   -0.154882     5B1u    0.029253  

    Alpha Virtual:                                                        

       6Ag     0.189248     3B2u    0.193525     3B3u    0.193525  
       6B1u    0.194257     3B3g    0.215701     3B2g    0.215701  
       7Ag     0.222620     7B1u    0.321000     8Ag     0.346560  
       1B1g    0.346560     4B3u    0.395615     4B2u    0.395615  
       9Ag     0.408528     1Au     0.446287     8B1u    0.446288  
       9B1u    0.482038     4B2g    0.493064     4B3g    0.493064  
       5B3u    0.614531     5B2u    0.614531    10B1u    0.696229  
      10Ag     0.710026     6B3u    0.718219     6B2u    0.718219  
       5B2g    0.721023     5B3g    0.721023    11Ag     0.728714  
      12Ag     0.745413     2B1g    0.745414    13Ag     0.822048  
       2Au     0.824303    11B1u    0.824307     7B3u    0.873734  
       7B2u    0.873734     6B2g    0.902957     6B3g    0.902957  
       3B1g    0.940046    14Ag     0.940052    12B1u    1.008190  
       7B3g    1.012340     7B2g    1.012340     8B2u    1.173625  
       8B3u    1.173625    13B1u    1.203727     3Au     1.203738  
      14B1u    1.216624     8B2g    1.365759     8B3g    1.365759  
      15Ag     1.430098    15B1u    1.584405     4B1g    1.923910  
      16Ag     1.923917    16B1u    1.992053     4Au     1.995979  
      17B1u    1.995986     9B3u    2.002265     9B2u    2.002265  
       9B3g    2.117475     9B2g    2.117475    17Ag     2.127649  
      10B2u    2.184119    10B3u    2.184119     5B1g    2.221045  
      18Ag     2.221048    19Ag     2.230660    11B3u    2.240022  
      11B2u    2.240022    12B2u    2.259338    12B3u    2.259338  
      10B3g    2.318652    10B2g    2.318652    18B1u    2.455998  
       5Au     2.456004    11B3g    2.467082    11B2g    2.467082  
      19B1u    2.586178    20Ag     2.685626    12B2g    2.763972  
      12B3g    2.763972    20B1u    3.824477    21Ag     4.645271  
      21B1u    5.466701  

    Beta Occupied:                                                        

       1B1u  -89.055124     1Ag   -89.055122     2Ag    -7.965271  
       2B1u   -7.965129     3Ag    -5.873391     3B1u   -5.873036  
       1B2u   -5.867907     1B3u   -5.867907     1B3g   -5.867880  
       1B2g   -5.867880     4Ag    -0.705638     4B1u   -0.502264  
       5Ag    -0.260148     2B2u   -0.214357     2B3u   -0.214357  

    Beta Virtual:                                                         

       2B3g    0.113962     2B2g    0.113962     5B1u    0.190348  
       3B2u    0.201524     3B3u    0.201524     6Ag     0.227236  
       3B3g    0.242860     3B2g    0.242860     7Ag     0.244277  
       6B1u    0.271275     7B1u    0.346650     1B1g    0.355323  
       8Ag     0.355323     4B3u    0.419363     4B2u    0.419363  
       9Ag     0.443746     1Au     0.456372     8B1u    0.456373  
       9B1u    0.513806     4B2g    0.515123     4B3g    0.515123  
       5B3u    0.630761     5B2u    0.630761    10Ag     0.726039  
      10B1u    0.730378     5B2g    0.739535     5B3g    0.739535  
       6B3u    0.746357     6B2u    0.746357    11Ag     0.749844  
      12Ag     0.768493     2B1g    0.768493    13Ag     0.855466  
       2Au     0.864640    11B1u    0.864645     7B3u    0.879945  
       7B2u    0.879945     6B2g    0.942112     6B3g    0.942112  
       3B1g    0.956338    14Ag     0.956345     7B3g    1.021095  
       7B2g    1.021095    12B1u    1.043090     8B3u    1.191512  
       8B2u    1.191512    13B1u    1.217249     3Au     1.217261  
      14B1u    1.229130     8B2g    1.397770     8B3g    1.397770  
      15Ag     1.475648    15B1u    1.636543     4B1g    1.983442  
      16Ag     1.983452    16B1u    2.028276     9B3u    2.031507  
       9B2u    2.031507     4Au     2.054893    17B1u    2.054904  
      17Ag     2.145522     9B3g    2.167716     9B2g    2.167716  
      10B2u    2.213772    10B3u    2.213772     5B1g    2.255401  
      18Ag     2.255404    19Ag     2.262534    11B3u    2.302270  
      11B2u    2.302270    12B2u    2.314637    12B3u    2.314637  
      10B3g    2.372454    10B2g    2.372454    18B1u    2.493992  
       5Au     2.493998    11B3g    2.509709    11B2g    2.509709  
      19B1u    2.616686    20Ag     2.713779    12B2g    2.801476  
      12B3g    2.801476    20B1u    3.849758    21Ag     4.678410  
      21B1u    5.501394  

    Final Occupation by Irrep:
             Ag   B1g   B2g   B3g    Au   B1u   B2u   B3u 
    DOCC [     5,    0,    1,    1,    0,    4,    2,    2 ]
    SOCC [     0,    0,    1,    1,    0,    1,    0,    0 ]

  @DF-UKS Final Energy:  -796.32699556263447

   => Energetics <=

    Nuclear Repulsion Energy =             67.7346829657599301
    One-Electron Energy =               -1240.3775895282064994
    Two-Electron Energy =                 415.7829810915163762
    DFT Exchange-Correlation Energy =     -39.6031473585871439
    Empirical Dispersion Energy =           0.0000000000000000
    VV10 Nonlocal Energy =                  0.1360772668828397
    Total Energy =                       -796.3269955626345791

  UHF NO Occupations:
  HONO-2 :    2B3g 1.0000000
  HONO-1 :    2B2g 1.0000000
  HONO-0 :    5B1u 1.0000000
  LUNO+0 :    3B3u 0.0023929
  LUNO+1 :    3B2u 0.0023929
  LUNO+2 :    6 Ag 0.0007379
  LUNO+3 :    6B1u 0.0002560


Computation Completed


Properties will be evaluated at   0.000000,   0.000000,   0.000000 [a0]

Properties computed using the SCF density matrix

  Nuclear Dipole Moment: [e a0]
     X:     0.0000      Y:     0.0000      Z:     0.0000

  Electronic Dipole Moment: [e a0]
     X:     0.0000      Y:     0.0000      Z:     0.0000

  Dipole Moment: [e a0]
     X:     0.0000      Y:     0.0000      Z:     0.0000     Total:     0.0000

  Dipole Moment: [D]
     X:     0.0000      Y:     0.0000      Z:     0.0000     Total:     0.0000


*** tstop() called on c4-11.compute.lan at Tue Feb  2 12:10:58 2021
Module time:
	user time   =      28.20 seconds =       0.47 minutes
	system time =       0.60 seconds =       0.01 minutes
	total time  =         29 seconds =       0.48 minutes
Total time:
	user time   =      28.20 seconds =       0.47 minutes
	system time =       0.60 seconds =       0.01 minutes
	total time  =         29 seconds =       0.48 minutes

  //>>>>>>>>>>>>>>>>>>>>>>>>>>>>>>>>>>>//
  //    Loading displacement 2 of 3    //
  //<<<<<<<<<<<<<<<<<<<<<<<<<<<<<<<<<<<//

*** tstart() called on c4-11.compute.lan
*** at Tue Feb  2 12:10:58 2021

   => Loading Basis Set <=

    Name: AUG-CC-PVTZ
    Role: ORBITAL
    Keyword: BASIS
    atoms 1-2 entry S          line   906 file /apps/gb/PSI4/1.4.0/share/psi4/basis/aug-cc-pvtz.gbs 


         ---------------------------------------------------------
                                   SCF
               by Justin Turney, Rob Parrish, Andy Simmonett
                          and Daniel G. A. Smith
                              UKS Reference
                        1 Threads,   9536 MiB Core
         ---------------------------------------------------------

  ==> Geometry <==

    Molecular point group: d2h
    Full point group: D_inf_h

    Geometry (in Angstrom), charge = -1, multiplicity = 4:

       Center              X                  Y                   Z               Mass       
    ------------   -----------------  -----------------  -----------------  -----------------
         S            0.000000000000     0.000000000000    -1.000330880180    31.972071174400
         S            0.000000000000     0.000000000000     1.000330880180    31.972071174400

  Running in d2h symmetry.

  Rotational constants: A = ************  B =      0.26346  C =      0.26346 [cm^-1]
  Rotational constants: A = ************  B =   7898.21736  C =   7898.21736 [MHz]
  Nuclear repulsion =   67.712278314902932

  Charge       = -1
  Multiplicity = 4
  Electrons    = 33
  Nalpha       = 18
  Nbeta        = 15

  ==> Algorithm <==

  SCF Algorithm Type is DF.
  DIIS enabled.
  MOM disabled.
  Fractional occupation disabled.
  Guess Type is SAD.
  Energy threshold   = 1.00e-08
  Density threshold  = 1.00e-08
  Integral threshold = 0.00e+00

  ==> Primary Basis <==

  Basis Set: AUG-CC-PVTZ
    Blend: AUG-CC-PVTZ
    Number of shells: 32
    Number of basis function: 100
    Number of Cartesian functions: 118
    Spherical Harmonics?: true
    Max angular momentum: 3

  ==> DFT Potential <==

   => Composite Functional: WB97M-V <= 

    wB97M-V Hyb-GGA Exchange-Correlation Functional

    N. Mardirossian and M. Head-Gordon, J. Chem. Phys. 144, 214110 (2016)

    Deriv               =              1
    GGA                 =           TRUE
    Meta                =           TRUE

    Exchange Hybrid     =           TRUE
    MP2 Hybrid          =          FALSE

   => Exchange-Correlation Functionals <=

    1.0000   wB97M-V exchange-correlation functional

   => Exact (HF) Exchange <=

    0.8500            HF,LR [omega = 0.3000]
    0.1500               HF 

   => VV10 Non-Local Parameters <=

    VV10 B              =     6.0000E+00
    VV10 C              =     1.0000E-02

   => Molecular Quadrature <=

    Radial Scheme          =       TREUTLER
    Pruning Scheme         =           NONE
    Nuclear Scheme         =       TREUTLER

    BS radius alpha        =              1
    Pruning alpha          =              1
    Radial Points          =             99
    Spherical Points       =            590
    Total Points           =         113376
    Total Blocks           =            984
    Max Points             =            255
    Max Functions          =            100
    Weights Tolerance      =       1.00E-15

   => Loading Basis Set <=

    Name: (AUG-CC-PVTZ AUX)
    Role: JKFIT
    Keyword: DF_BASIS_SCF
    atoms 1-2 entry S          line   730 file /apps/gb/PSI4/1.4.0/share/psi4/basis/aug-cc-pvtz-jkfit.gbs 

  ==> Pre-Iterations <==

   -------------------------------------------------------
    Irrep   Nso     Nmo     Nalpha   Nbeta   Ndocc  Nsocc
   -------------------------------------------------------
     Ag        21      21       0       0       0       0
     B1g        5       5       0       0       0       0
     B2g       12      12       0       0       0       0
     B3g       12      12       0       0       0       0
     Au         5       5       0       0       0       0
     B1u       21      21       0       0       0       0
     B2u       12      12       0       0       0       0
     B3u       12      12       0       0       0       0
   -------------------------------------------------------
    Total     100     100      18      15      15       3
   -------------------------------------------------------

  ==> Integral Setup <==

  ==> DiskDFJK: Density-Fitted J/K Matrices <==

    J tasked:                  Yes
    K tasked:                  Yes
    wK tasked:                 Yes
    Omega:               3.000E-01
    OpenMP threads:              1
    Integrals threads:           1
    Memory [MiB]:             6378
    Algorithm:                Core
    Integral Cache:           NONE
    Schwarz Cutoff:          1E-12
    Fitting Condition:       1E-10

   => Auxiliary Basis Set <=

  Basis Set: (AUG-CC-PVTZ AUX)
    Blend: AUG-CC-PVTZ-JKFIT
    Number of shells: 84
    Number of basis function: 292
    Number of Cartesian functions: 360
    Spherical Harmonics?: true
    Max angular momentum: 4

  Cached 100.0% of DFT collocation blocks in 0.756 [GiB].

  Minimum eigenvalue in the overlap matrix is 2.7231679894E-04.
  Using Symmetric Orthogonalization.

  SCF Guess: Superposition of Atomic Densities via on-the-fly atomic UHF.

  ==> Iterations <==

                           Total Energy        Delta E     RMS |[F,P]|

   @DF-UKS iter SAD:  -795.86832931842059   -7.95868e+02   0.00000e+00 
   @DF-UKS iter   1:  -796.23453530033555   -3.66206e-01   9.59415e-03 DIIS
   @DF-UKS iter   2:  -796.28377753338907   -4.92422e-02   7.41531e-03 DIIS
   @DF-UKS iter   3:  -796.32464971610705   -4.08722e-02   8.02793e-04 DIIS
   @DF-UKS iter   4:  -796.32603969834543   -1.38998e-03   4.29292e-04 DIIS
   @DF-UKS iter   5:  -796.32677912372662   -7.39425e-04   1.52093e-04 DIIS
   @DF-UKS iter   6:  -796.32699203683262   -2.12913e-04   6.28992e-05 DIIS
   @DF-UKS iter   7:  -796.32702508961745   -3.30528e-05   1.25567e-05 DIIS
   @DF-UKS iter   8:  -796.32702592561077   -8.35993e-07   1.50326e-06 DIIS
   @DF-UKS iter   9:  -796.32702593180431   -6.19355e-09   4.10999e-07 DIIS
   @DF-UKS iter  10:  -796.32702593233432   -5.30008e-10   6.83249e-08 DIIS
   @DF-UKS iter  11:  -796.32702593234944   -1.51203e-11   1.27988e-08 DIIS
   @DF-UKS iter  12:  -796.32702593234990   -4.54747e-13   1.48089e-09 DIIS
  Energy and wave function converged.


  ==> Post-Iterations <==

   @Spin Contamination Metric:   1.172564462E-02
   @S^2 Expected:                3.750000000E+00
   @S^2 Observed:                3.761725645E+00
   @S   Expected:                1.500000000E+00
   @S   Observed:                1.500000000E+00

    Orbital Energies [Eh]
    ---------------------

    Alpha Occupied:                                                       

       1B1u  -89.062448     1Ag   -89.062445     2Ag    -7.972821  
       2B1u   -7.972745     1B3g   -5.882018     1B2g   -5.882018  
       1B2u   -5.882017     1B3u   -5.882017     3Ag    -5.880580  
       3B1u   -5.880220     4Ag    -0.741990     4B1u   -0.566528  
       5Ag    -0.304191     2B3u   -0.276836     2B2u   -0.276836  
       2B2g   -0.154815     2B3g   -0.154815     5B1u    0.029146  

    Alpha Virtual:                                                        

       6Ag     0.189305     3B3u    0.193579     3B2u    0.193579  
       6B1u    0.194238     3B2g    0.215751     3B3g    0.215751  
       7Ag     0.222703     7B1u    0.321093     8Ag     0.346652  
       1B1g    0.346652     4B2u    0.395693     4B3u    0.395693  
       9Ag     0.408765     1Au     0.446337     8B1u    0.446337  
       9B1u    0.482138     4B2g    0.493195     4B3g    0.493195  
       5B3u    0.614649     5B2u    0.614649    10B1u    0.696382  
      10Ag     0.710239     6B3u    0.718363     6B2u    0.718363  
       5B2g    0.721115     5B3g    0.721115    11Ag     0.728889  
      12Ag     0.745576     2B1g    0.745578    13Ag     0.822029  
       2Au     0.824389    11B1u    0.824393     7B3u    0.873855  
       7B2u    0.873855     6B2g    0.902987     6B3g    0.902987  
       3B1g    0.940060    14Ag     0.940066    12B1u    1.008112  
       7B3g    1.012381     7B2g    1.012381     8B2u    1.173597  
       8B3u    1.173597    13B1u    1.203715     3Au     1.203727  
      14B1u    1.216458     8B2g    1.365788     8B3g    1.365788  
      15Ag     1.430013    15B1u    1.584577     4B1g    1.924022  
      16Ag     1.924029    16B1u    1.992312     4Au     1.996066  
      17B1u    1.996073     9B3u    2.002492     9B2u    2.002492  
       9B3g    2.117703     9B2g    2.117703    17Ag     2.127963  
      10B2u    2.184123    10B3u    2.184123     5B1g    2.221366  
      18Ag     2.221370    19Ag     2.230947    11B2u    2.240126  
      11B3u    2.240126    12B3u    2.259495    12B2u    2.259495  
      10B2g    2.318734    10B3g    2.318734    18B1u    2.455897  
       5Au     2.455903    11B3g    2.466830    11B2g    2.466830  
      19B1u    2.585976    20Ag     2.684668    12B2g    2.763648  
      12B3g    2.763648    20B1u    3.824308    21Ag     4.644380  
      21B1u    5.466518  

    Beta Occupied:                                                        

       1B1u  -89.054979     1Ag   -89.054978     2Ag    -7.965120  
       2B1u   -7.964979     3Ag    -5.873232     3B1u   -5.872878  
       1B2u   -5.867759     1B3u   -5.867759     1B3g   -5.867732  
       1B2g   -5.867732     4Ag    -0.705314     4B1u   -0.502178  
       5Ag    -0.259941     2B3u   -0.214125     2B2u   -0.214125  

    Beta Virtual:                                                         

       2B3g    0.114017     2B2g    0.114017     5B1u    0.190342  
       3B3u    0.201556     3B2u    0.201556     6Ag     0.227302  
       3B2g    0.242825     3B3g    0.242825     7Ag     0.244328  
       6B1u    0.271227     7B1u    0.346654     1B1g    0.355411  
       8Ag     0.355411     4B3u    0.419422     4B2u    0.419422  
       9Ag     0.443868     1Au     0.456412     8B1u    0.456413  
       9B1u    0.513823     4B2g    0.515173     4B3g    0.515173  
       5B3u    0.630879     5B2u    0.630879    10Ag     0.726180  
      10B1u    0.730491     5B2g    0.739597     5B3g    0.739597  
       6B3u    0.746479     6B2u    0.746479    11Ag     0.750028  
      12Ag     0.768664     2B1g    0.768664    13Ag     0.855468  
       2Au     0.864722    11B1u    0.864727     7B3u    0.880064  
       7B2u    0.880064     6B2g    0.942132     6B3g    0.942132  
       3B1g    0.956351    14Ag     0.956358     7B3g    1.021136  
       7B2g    1.021136    12B1u    1.043013     8B2u    1.191492  
       8B3u    1.191492    13B1u    1.217238     3Au     1.217249  
      14B1u    1.228960     8B2g    1.397787     8B3g    1.397787  
      15Ag     1.475532    15B1u    1.636681     4B1g    1.983564  
      16Ag     1.983574    16B1u    2.028549     9B3u    2.031788  
       9B2u    2.031788     4Au     2.054986    17B1u    2.054997  
      17Ag     2.145847     9B3g    2.167938     9B2g    2.167938  
      10B2u    2.213770    10B3u    2.213770     5B1g    2.255745  
      18Ag     2.255748    19Ag     2.262858    11B2u    2.302383  
      11B3u    2.302383    12B3u    2.314805    12B2u    2.314805  
      10B2g    2.372545    10B3g    2.372545    18B1u    2.493901  
       5Au     2.493907    11B3g    2.509481    11B2g    2.509481  
      19B1u    2.616495    20Ag     2.712852    12B2g    2.801158  
      12B3g    2.801158    20B1u    3.849568    21Ag     4.677517  
      21B1u    5.501213  

    Final Occupation by Irrep:
             Ag   B1g   B2g   B3g    Au   B1u   B2u   B3u 
    DOCC [     5,    0,    1,    1,    0,    4,    2,    2 ]
    SOCC [     0,    0,    1,    1,    0,    1,    0,    0 ]

  @DF-UKS Final Energy:  -796.32702593234990

   => Energetics <=

    Nuclear Repulsion Energy =             67.7122783149029317
    One-Electron Energy =               -1240.3378438971906235
    Two-Electron Energy =                 415.7655653701865504
    DFT Exchange-Correlation Energy =     -39.6031037253278768
    Empirical Dispersion Energy =           0.0000000000000000
    VV10 Nonlocal Energy =                  0.1360780050791048
    Total Energy =                       -796.3270259323498976

  UHF NO Occupations:
  HONO-2 :    5B1u 1.0000000
  HONO-1 :    2B2g 1.0000000
  HONO-0 :    2B3g 1.0000000
  LUNO+0 :    3B2u 0.0023957
  LUNO+1 :    3B3u 0.0023957
  LUNO+2 :    6 Ag 0.0007393
  LUNO+3 :    6B1u 0.0002558


Computation Completed


Properties will be evaluated at   0.000000,   0.000000,   0.000000 [a0]

Properties computed using the SCF density matrix

  Nuclear Dipole Moment: [e a0]
     X:     0.0000      Y:     0.0000      Z:     0.0000

  Electronic Dipole Moment: [e a0]
     X:     0.0000      Y:     0.0000      Z:     0.0000

  Dipole Moment: [e a0]
     X:     0.0000      Y:     0.0000      Z:     0.0000     Total:     0.0000

  Dipole Moment: [D]
     X:     0.0000      Y:     0.0000      Z:     0.0000     Total:     0.0000


*** tstop() called on c4-11.compute.lan at Tue Feb  2 12:11:26 2021
Module time:
	user time   =      27.78 seconds =       0.46 minutes
	system time =       0.25 seconds =       0.00 minutes
	total time  =         28 seconds =       0.47 minutes
Total time:
	user time   =      55.99 seconds =       0.93 minutes
	system time =       0.85 seconds =       0.01 minutes
	total time  =         57 seconds =       0.95 minutes

  //>>>>>>>>>>>>>>>>>>>>>>>>>>>>>>>>>>>//
  //    Loading displacement 3 of 3    //
  //<<<<<<<<<<<<<<<<<<<<<<<<<<<<<<<<<<<//

*** tstart() called on c4-11.compute.lan
*** at Tue Feb  2 12:11:26 2021

   => Loading Basis Set <=

    Name: AUG-CC-PVTZ
    Role: ORBITAL
    Keyword: BASIS
    atoms 1-2 entry S          line   906 file /apps/gb/PSI4/1.4.0/share/psi4/basis/aug-cc-pvtz.gbs 


         ---------------------------------------------------------
                                   SCF
               by Justin Turney, Rob Parrish, Andy Simmonett
                          and Daniel G. A. Smith
                              UKS Reference
                        1 Threads,   9536 MiB Core
         ---------------------------------------------------------

  ==> Geometry <==

    Molecular point group: d2h
    Full point group: D_inf_h

    Geometry (in Angstrom), charge = -1, multiplicity = 4:

       Center              X                  Y                   Z               Mass       
    ------------   -----------------  -----------------  -----------------  -----------------
         S            0.000000000000     0.000000000000    -0.999669119820    31.972071174400
         S            0.000000000000     0.000000000000     0.999669119820    31.972071174400

  Running in d2h symmetry.

  Rotational constants: A = ************  B =      0.26381  C =      0.26381 [cm^-1]
  Rotational constants: A = ************  B =   7908.67773  C =   7908.67773 [MHz]
  Nuclear repulsion =   67.757102448034203

  Charge       = -1
  Multiplicity = 4
  Electrons    = 33
  Nalpha       = 18
  Nbeta        = 15

  ==> Algorithm <==

  SCF Algorithm Type is DF.
  DIIS enabled.
  MOM disabled.
  Fractional occupation disabled.
  Guess Type is SAD.
  Energy threshold   = 1.00e-08
  Density threshold  = 1.00e-08
  Integral threshold = 0.00e+00

  ==> Primary Basis <==

  Basis Set: AUG-CC-PVTZ
    Blend: AUG-CC-PVTZ
    Number of shells: 32
    Number of basis function: 100
    Number of Cartesian functions: 118
    Spherical Harmonics?: true
    Max angular momentum: 3

  ==> DFT Potential <==

   => Composite Functional: WB97M-V <= 

    wB97M-V Hyb-GGA Exchange-Correlation Functional

    N. Mardirossian and M. Head-Gordon, J. Chem. Phys. 144, 214110 (2016)

    Deriv               =              1
    GGA                 =           TRUE
    Meta                =           TRUE

    Exchange Hybrid     =           TRUE
    MP2 Hybrid          =          FALSE

   => Exchange-Correlation Functionals <=

    1.0000   wB97M-V exchange-correlation functional

   => Exact (HF) Exchange <=

    0.8500            HF,LR [omega = 0.3000]
    0.1500               HF 

   => VV10 Non-Local Parameters <=

    VV10 B              =     6.0000E+00
    VV10 C              =     1.0000E-02

   => Molecular Quadrature <=

    Radial Scheme          =       TREUTLER
    Pruning Scheme         =           NONE
    Nuclear Scheme         =       TREUTLER

    BS radius alpha        =              1
    Pruning alpha          =              1
    Radial Points          =             99
    Spherical Points       =            590
    Total Points           =         113368
    Total Blocks           =            984
    Max Points             =            255
    Max Functions          =            100
    Weights Tolerance      =       1.00E-15

   => Loading Basis Set <=

    Name: (AUG-CC-PVTZ AUX)
    Role: JKFIT
    Keyword: DF_BASIS_SCF
    atoms 1-2 entry S          line   730 file /apps/gb/PSI4/1.4.0/share/psi4/basis/aug-cc-pvtz-jkfit.gbs 

  ==> Pre-Iterations <==

   -------------------------------------------------------
    Irrep   Nso     Nmo     Nalpha   Nbeta   Ndocc  Nsocc
   -------------------------------------------------------
     Ag        21      21       0       0       0       0
     B1g        5       5       0       0       0       0
     B2g       12      12       0       0       0       0
     B3g       12      12       0       0       0       0
     Au         5       5       0       0       0       0
     B1u       21      21       0       0       0       0
     B2u       12      12       0       0       0       0
     B3u       12      12       0       0       0       0
   -------------------------------------------------------
    Total     100     100      18      15      15       3
   -------------------------------------------------------

  ==> Integral Setup <==

  ==> DiskDFJK: Density-Fitted J/K Matrices <==

    J tasked:                  Yes
    K tasked:                  Yes
    wK tasked:                 Yes
    Omega:               3.000E-01
    OpenMP threads:              1
    Integrals threads:           1
    Memory [MiB]:             6378
    Algorithm:                Core
    Integral Cache:           NONE
    Schwarz Cutoff:          1E-12
    Fitting Condition:       1E-10

   => Auxiliary Basis Set <=

  Basis Set: (AUG-CC-PVTZ AUX)
    Blend: AUG-CC-PVTZ-JKFIT
    Number of shells: 84
    Number of basis function: 292
    Number of Cartesian functions: 360
    Spherical Harmonics?: true
    Max angular momentum: 4

  Cached 100.0% of DFT collocation blocks in 0.756 [GiB].

  Minimum eigenvalue in the overlap matrix is 2.7148790077E-04.
  Using Symmetric Orthogonalization.

  SCF Guess: Superposition of Atomic Densities via on-the-fly atomic UHF.

  ==> Iterations <==

                           Total Energy        Delta E     RMS |[F,P]|

   @DF-UKS iter SAD:  -795.86999927661384   -7.95870e+02   0.00000e+00 
   @DF-UKS iter   1:  -796.23435201744962   -3.64353e-01   9.59519e-03 DIIS
   @DF-UKS iter   2:  -796.28362130098321   -4.92693e-02   7.42132e-03 DIIS
   @DF-UKS iter   3:  -796.32457295332267   -4.09517e-02   8.03946e-04 DIIS
   @DF-UKS iter   4:  -796.32597231932652   -1.39937e-03   4.30840e-04 DIIS
   @DF-UKS iter   5:  -796.32671736825637   -7.45049e-04   1.52578e-04 DIIS
   @DF-UKS iter   6:  -796.32693135057900   -2.13982e-04   6.28495e-05 DIIS
   @DF-UKS iter   7:  -796.32696421881815   -3.28682e-05   1.25096e-05 DIIS
   @DF-UKS iter   8:  -796.32696504832313   -8.29505e-07   1.49313e-06 DIIS
   @DF-UKS iter   9:  -796.32696505447302   -6.14989e-09   4.08598e-07 DIIS
   @DF-UKS iter  10:  -796.32696505499769   -5.24665e-10   6.81352e-08 DIIS
   @DF-UKS iter  11:  -796.32696505501224   -1.45519e-11   1.27162e-08 DIIS
   @DF-UKS iter  12:  -796.32696505501303   -7.95808e-13   1.47900e-09 DIIS
  Energy and wave function converged.


  ==> Post-Iterations <==

   @Spin Contamination Metric:   1.169781810E-02
   @S^2 Expected:                3.750000000E+00
   @S^2 Observed:                3.761697818E+00
   @S   Expected:                1.500000000E+00
   @S   Observed:                1.500000000E+00

    Orbital Energies [Eh]
    ---------------------

    Alpha Occupied:                                                       

       1B1u  -89.062730     1Ag   -89.062726     2Ag    -7.973115  
       2B1u   -7.973038     1B2g   -5.882309     1B3g   -5.882309  
       1B3u   -5.882308     1B2u   -5.882308     3Ag    -5.880872  
       3B1u   -5.880509     4Ag    -0.742566     4B1u   -0.566661  
       5Ag    -0.304492     2B3u   -0.277246     2B2u   -0.277246  
       2B2g   -0.154949     2B3g   -0.154949     5B1u    0.029359  

    Alpha Virtual:                                                        

       6Ag     0.189191     3B3u    0.193470     3B2u    0.193470  
       6B1u    0.194277     3B2g    0.215652     3B3g    0.215652  
       7Ag     0.222536     7B1u    0.320907     8Ag     0.346468  
       1B1g    0.346468     4B2u    0.395537     4B3u    0.395537  
       9Ag     0.408290     1Au     0.446237     8B1u    0.446238  
       9B1u    0.481938     4B2g    0.492933     4B3g    0.492933  
       5B3u    0.614414     5B2u    0.614414    10B1u    0.696075  
      10Ag     0.709812     6B3u    0.718074     6B2u    0.718074  
       5B3g    0.720932     5B2g    0.720932    11Ag     0.728538  
      12Ag     0.745249     2B1g    0.745251    13Ag     0.822067  
       2Au     0.824217    11B1u    0.824221     7B2u    0.873613  
       7B3u    0.873613     6B2g    0.902927     6B3g    0.902927  
       3B1g    0.940032    14Ag     0.940038    12B1u    1.008269  
       7B3g    1.012299     7B2g    1.012299     8B2u    1.173654  
       8B3u    1.173654    13B1u    1.203738     3Au     1.203749  
      14B1u    1.216790     8B3g    1.365731     8B2g    1.365731  
      15Ag     1.430183    15B1u    1.584231     4B1g    1.923797  
      16Ag     1.923804    16B1u    1.991795     4Au     1.995892  
      17B1u    1.995900     9B2u    2.002037     9B3u    2.002037  
       9B3g    2.117248     9B2g    2.117248    17Ag     2.127335  
      10B3u    2.184116    10B2u    2.184116     5B1g    2.220724  
      18Ag     2.220727    19Ag     2.230373    11B3u    2.239919  
      11B2u    2.239919    12B2u    2.259181    12B3u    2.259181  
      10B3g    2.318569    10B2g    2.318569    18B1u    2.456099  
       5Au     2.456105    11B3g    2.467335    11B2g    2.467335  
      19B1u    2.586380    20Ag     2.686585    12B2g    2.764296  
      12B3g    2.764296    20B1u    3.824642    21Ag     4.646164  
      21B1u    5.466886  

    Beta Occupied:                                                        

       1B1u  -89.055268     1Ag   -89.055267     2Ag    -7.965422  
       2B1u   -7.965280     3Ag    -5.873550     3B1u   -5.873193  
       1B3u   -5.868055     1B2u   -5.868055     1B2g   -5.868027  
       1B3g   -5.868027     4Ag    -0.705963     4B1u   -0.502349  
       5Ag    -0.260356     2B3u   -0.214589     2B2u   -0.214589  

    Beta Virtual:                                                         

       2B2g    0.113907     2B3g    0.113907     5B1u    0.190354  
       3B3u    0.201491     3B2u    0.201491     6Ag     0.227169  
       3B2g    0.242894     3B3g    0.242894     7Ag     0.244226  
       6B1u    0.271324     7B1u    0.346647     1B1g    0.355235  
       8Ag     0.355235     4B2u    0.419304     4B3u    0.419304  
       9Ag     0.443624     1Au     0.456332     8B1u    0.456333  
       9B1u    0.513789     4B2g    0.515074     4B3g    0.515074  
       5B3u    0.630643     5B2u    0.630643    10Ag     0.725897  
      10B1u    0.730264     5B3g    0.739473     5B2g    0.739473  
       6B3u    0.746235     6B2u    0.746235    11Ag     0.749659  
      12Ag     0.768322     2B1g    0.768322    13Ag     0.855464  
       2Au     0.864559    11B1u    0.864564     7B2u    0.879826  
       7B3u    0.879826     6B2g    0.942093     6B3g    0.942093  
       3B1g    0.956325    14Ag     0.956332     7B3g    1.021054  
       7B2g    1.021054    12B1u    1.043166     8B2u    1.191532  
       8B3u    1.191532    13B1u    1.217261     3Au     1.217272  
      14B1u    1.229300     8B3g    1.397754     8B2g    1.397754  
      15Ag     1.475764    15B1u    1.636404     4B1g    1.983320  
      16Ag     1.983330    16B1u    2.028004     9B2u    2.031225  
       9B3u    2.031225     4Au     2.054799    17B1u    2.054810  
      17Ag     2.145197     9B3g    2.167495     9B2g    2.167495  
      10B3u    2.213776    10B2u    2.213776     5B1g    2.255057  
      18Ag     2.255060    19Ag     2.262210    11B3u    2.302157  
      11B2u    2.302157    12B2u    2.314469    12B3u    2.314469  
      10B3g    2.372362    10B2g    2.372362    18B1u    2.494084  
       5Au     2.494090    11B3g    2.509937    11B2g    2.509937  
      19B1u    2.616877    20Ag     2.714706    12B2g    2.801794  
      12B3g    2.801794    20B1u    3.849943    21Ag     4.679304  
      21B1u    5.501579  

    Final Occupation by Irrep:
             Ag   B1g   B2g   B3g    Au   B1u   B2u   B3u 
    DOCC [     5,    0,    1,    1,    0,    4,    2,    2 ]
    SOCC [     0,    0,    1,    1,    0,    1,    0,    0 ]

  @DF-UKS Final Energy:  -796.32696505501303

   => Energetics <=

    Nuclear Repulsion Energy =             67.7571024480342032
    One-Electron Energy =               -1240.4173666505212168
    Two-Electron Energy =                 415.8004139737351466
    DFT Exchange-Correlation Energy =     -39.6031913562415241
    Empirical Dispersion Energy =           0.0000000000000000
    VV10 Nonlocal Energy =                  0.1360765299803703
    Total Energy =                       -796.3269650550129199

  UHF NO Occupations:
  HONO-2 :    5B1u 1.0000000
  HONO-1 :    2B2g 1.0000000
  HONO-0 :    2B3g 1.0000000
  LUNO+0 :    3B2u 0.0023900
  LUNO+1 :    3B3u 0.0023900
  LUNO+2 :    6 Ag 0.0007365
  LUNO+3 :    6B1u 0.0002561


Computation Completed


Properties will be evaluated at   0.000000,   0.000000,   0.000000 [a0]

Properties computed using the SCF density matrix

  Nuclear Dipole Moment: [e a0]
     X:     0.0000      Y:     0.0000      Z:     0.0000

  Electronic Dipole Moment: [e a0]
     X:     0.0000      Y:     0.0000      Z:     0.0000

  Dipole Moment: [e a0]
     X:     0.0000      Y:     0.0000      Z:     0.0000     Total:     0.0000

  Dipole Moment: [D]
     X:     0.0000      Y:     0.0000      Z:     0.0000     Total:     0.0000


*** tstop() called on c4-11.compute.lan at Tue Feb  2 12:11:53 2021
Module time:
	user time   =      26.71 seconds =       0.45 minutes
	system time =       0.18 seconds =       0.00 minutes
	total time  =         27 seconds =       0.45 minutes
Total time:
	user time   =      82.71 seconds =       1.38 minutes
	system time =       1.03 seconds =       0.02 minutes
	total time  =         84 seconds =       1.40 minutes

         ----------------------------------------------------------
                                   FINDIF
                     R. A. King and Jonathon Misiewicz
         ---------------------------------------------------------

  Computing gradient from energies.
    Using 3-point formula.
    Energy without displacement: -796.3269955626
    Check energies below for precision!
    Forces are for mass-weighted, symmetry-adapted cartesians (in au).

     Coord      Energy(-1)        Energy(+1)            Force
        0   -796.3270259323   -796.3269650550      0.0060877337


-------------------------------------------------------------
  ## New Matrix (Symmetry 0) ##
  Irrep: 1 Size: 2 x 3

                 1                   2                   3

    1     0.00000000000000     0.00000000000000     0.02434030597268
    2     0.00000000000000     0.00000000000000    -0.02434030597268




			-----------------------------------------
			 OPTKING 2.0: for geometry optimizations 
			  - R.A. King,  Bethel University        
			-----------------------------------------

	Internal coordinates to be generated automatically.
	Detected frag 1 with atoms:  1 2
	---Fragment 1 Bond Connectivity---
	 1 : 2
	 2 : 1

	---Fragment 1 Geometry and Gradient---
	 S           0.0000000000        0.0000000000       -1.8897261255
	 S           0.0000000000        0.0000000000        1.8897261255
	             0.0000000000        0.0000000000        0.0243403060
	             0.0000000000        0.0000000000       -0.0243403060

	Previous optimization step data not found.  Starting new optimization.

	---Fragment 1 Intrafragment Coordinates---
	 - Coordinate -           - BOHR/RAD -       - ANG/DEG -
	 R(1,2)           =         3.779452	       2.000000

	Current energy   :      -796.3269955626

	Generating empirical Hessian (Schlegel '84) for each fragment.
	Taking RFO optimization step.
	Going to follow RFO solution 1.
	Using RFO vector 1.
	Norm of target step-size    0.07002
	Projected energy change by RFO approximation:         0.0007435534

	Back-transformation to cartesian coordinates...
	Successfully converged to displaced geometry.

	--- Internal Coordinate Step in ANG or DEG, aJ/ANG or AJ/DEG ---
	 ---------------------------------------------------------------------------
	   Coordinate                Previous        Force       Change         New 
	   ----------                --------       ------       ------       ------
	    1 R(1,2)          =      2.000000     0.200533     0.037054     2.037054
	 ---------------------------------------------------------------------------
	Successfully symmetrized geometry.

  ==> Convergence Check <==

  Measures of convergence in internal coordinates in au.
  Criteria marked as inactive (o), active & met (*), and active & unmet ( ).
  --------------------------------------------------------------------------------------------- ~
   Step     Total Energy     Delta E     MAX Force     RMS Force      MAX Disp      RMS Disp    ~
  --------------------------------------------------------------------------------------------- ~
    Convergence Criteria             o    2.00e-06 *    1.00e-06 *    6.00e-06 *    4.00e-06 *  ~
  --------------------------------------------------------------------------------------------- ~
      1    -796.32699556   -7.96e+02 o    2.43e-02      2.43e-02      7.00e-02      7.00e-02    ~
  ---------------------------------------------------------------------------------------------

	Writing optimization data to binary file.
	Structure for next step:
	Cartesian Geometry (in Angstrom)
	    S     0.0000000000   0.0000000000  -1.0185271111
	    S     0.0000000000   0.0000000000   1.0185271111
			--------------------------
			 OPTKING Finished Execution 
			--------------------------

    Structure for next step:
    Molecular point group: d2h
    Full point group: D_inf_h

    Geometry (in Angstrom), charge = -1, multiplicity = 4:

    S       
    S             1          r1

    r1        =    2.0370542301

gradient() will perform gradient computation by finite difference of analytic energies.

         ----------------------------------------------------------
                                   FINDIF
                     R. A. King and Jonathon Misiewicz
         ---------------------------------------------------------

  Using finite-differences of energies to determine gradients.
    Generating geometries for use with 3-point formula.
    Displacement size will be 5.00e-03.
    Number of atoms is 2.
    Number of symmetric SALCs is 1.
    Translations projected? 1. Rotations projected? 1.
    Number of geometries (including reference) is 3.

  //>>>>>>>>>>>>>>>>>>>>>>>>>>>>>>>>>>>//
  //    Loading displacement 1 of 3    //
  //<<<<<<<<<<<<<<<<<<<<<<<<<<<<<<<<<<<//

*** tstart() called on c4-11.compute.lan
*** at Tue Feb  2 12:11:53 2021

   => Loading Basis Set <=

    Name: AUG-CC-PVTZ
    Role: ORBITAL
    Keyword: BASIS
    atoms 1-2 entry S          line   906 file /apps/gb/PSI4/1.4.0/share/psi4/basis/aug-cc-pvtz.gbs 


         ---------------------------------------------------------
                                   SCF
               by Justin Turney, Rob Parrish, Andy Simmonett
                          and Daniel G. A. Smith
                              UKS Reference
                        1 Threads,   9536 MiB Core
         ---------------------------------------------------------

  ==> Geometry <==

    Molecular point group: d2h
    Full point group: D_inf_h

    Geometry (in Angstrom), charge = -1, multiplicity = 4:

       Center              X                  Y                   Z               Mass       
    ------------   -----------------  -----------------  -----------------  -----------------
         S            0.000000000000     0.000000000000    -1.018527115061    31.972071174400
         S            0.000000000000     0.000000000000     1.018527115061    31.972071174400

  Running in d2h symmetry.

  Rotational constants: A = ************  B =      0.25413  C =      0.25413 [cm^-1]
  Rotational constants: A = ************  B =   7618.53105  C =   7618.53105 [MHz]
  Nuclear repulsion =   66.502581977594019

  Charge       = -1
  Multiplicity = 4
  Electrons    = 33
  Nalpha       = 18
  Nbeta        = 15

  ==> Algorithm <==

  SCF Algorithm Type is DF.
  DIIS enabled.
  MOM disabled.
  Fractional occupation disabled.
  Guess Type is READ.
  Energy threshold   = 1.00e-08
  Density threshold  = 1.00e-08
  Integral threshold = 0.00e+00

  ==> Primary Basis <==

  Basis Set: AUG-CC-PVTZ
    Blend: AUG-CC-PVTZ
    Number of shells: 32
    Number of basis function: 100
    Number of Cartesian functions: 118
    Spherical Harmonics?: true
    Max angular momentum: 3

  ==> DFT Potential <==

   => Composite Functional: WB97M-V <= 

    wB97M-V Hyb-GGA Exchange-Correlation Functional

    N. Mardirossian and M. Head-Gordon, J. Chem. Phys. 144, 214110 (2016)

    Deriv               =              1
    GGA                 =           TRUE
    Meta                =           TRUE

    Exchange Hybrid     =           TRUE
    MP2 Hybrid          =          FALSE

   => Exchange-Correlation Functionals <=

    1.0000   wB97M-V exchange-correlation functional

   => Exact (HF) Exchange <=

    0.8500            HF,LR [omega = 0.3000]
    0.1500               HF 

   => VV10 Non-Local Parameters <=

    VV10 B              =     6.0000E+00
    VV10 C              =     1.0000E-02

   => Molecular Quadrature <=

    Radial Scheme          =       TREUTLER
    Pruning Scheme         =           NONE
    Nuclear Scheme         =       TREUTLER

    BS radius alpha        =              1
    Pruning alpha          =              1
    Radial Points          =             99
    Spherical Points       =            590
    Total Points           =         113402
    Total Blocks           =            984
    Max Points             =            256
    Max Functions          =            100
    Weights Tolerance      =       1.00E-15

   => Loading Basis Set <=

    Name: (AUG-CC-PVTZ AUX)
    Role: JKFIT
    Keyword: DF_BASIS_SCF
    atoms 1-2 entry S          line   730 file /apps/gb/PSI4/1.4.0/share/psi4/basis/aug-cc-pvtz-jkfit.gbs 

   => Loading Basis Set <=

    Name: AUG-CC-PVTZ
    Role: ORBITAL
    Keyword: BASIS
    atoms 1-2 entry S          line   906 file /apps/gb/PSI4/1.4.0/share/psi4/basis/aug-cc-pvtz.gbs 

  Reading orbitals from file 180, no projection.

  ==> Pre-Iterations <==

   -------------------------------------------------------
    Irrep   Nso     Nmo     Nalpha   Nbeta   Ndocc  Nsocc
   -------------------------------------------------------
     Ag        21      21       0       0       0       0
     B1g        5       5       0       0       0       0
     B2g       12      12       0       0       0       0
     B3g       12      12       0       0       0       0
     Au         5       5       0       0       0       0
     B1u       21      21       0       0       0       0
     B2u       12      12       0       0       0       0
     B3u       12      12       0       0       0       0
   -------------------------------------------------------
    Total     100     100      18      15      15       3
   -------------------------------------------------------

  ==> Integral Setup <==

  ==> DiskDFJK: Density-Fitted J/K Matrices <==

    J tasked:                  Yes
    K tasked:                  Yes
    wK tasked:                 Yes
    Omega:               3.000E-01
    OpenMP threads:              1
    Integrals threads:           1
    Memory [MiB]:             6378
    Algorithm:                Core
    Integral Cache:           NONE
    Schwarz Cutoff:          1E-12
    Fitting Condition:       1E-10

   => Auxiliary Basis Set <=

  Basis Set: (AUG-CC-PVTZ AUX)
    Blend: AUG-CC-PVTZ-JKFIT
    Number of shells: 84
    Number of basis function: 292
    Number of Cartesian functions: 360
    Spherical Harmonics?: true
    Max angular momentum: 4

  Cached 100.0% of DFT collocation blocks in 0.756 [GiB].

  Minimum eigenvalue in the overlap matrix is 2.9601049139E-04.
  Using Symmetric Orthogonalization.

  SCF Guess: Orbitals guess was supplied from a previous computation.

  ==> Iterations <==

                           Total Energy        Delta E     RMS |[F,P]|

   @DF-UKS iter   0:  -796.31580137420349   -7.96316e+02   6.32330e-03 
   @DF-UKS iter   1:  -796.32836579388993   -1.25644e-02   2.34509e-04 DIIS
   @DF-UKS iter   2:  -796.32846740992534   -1.01616e-04   1.23917e-04 DIIS
   @DF-UKS iter   3:  -796.32849460406931   -2.71941e-05   5.78548e-05 DIIS
   @DF-UKS iter   4:  -796.32850651409819   -1.19100e-05   2.46250e-05 DIIS
   @DF-UKS iter   5:  -796.32851035512908   -3.84103e-06   1.12166e-05 DIIS
   @DF-UKS iter   6:  -796.32851131522216   -9.60093e-07   3.44493e-06 DIIS
   @DF-UKS iter   7:  -796.32851142174468   -1.06523e-07   6.72015e-07 DIIS
   @DF-UKS iter   8:  -796.32851142501534   -3.27066e-09   1.09630e-07 DIIS
   @DF-UKS iter   9:  -796.32851142507457   -5.92308e-11   1.97133e-08 DIIS
   @DF-UKS iter  10:  -796.32851142507582   -1.25056e-12   2.60158e-09 DIIS
  Energy and wave function converged.


  ==> Post-Iterations <==

   @Spin Contamination Metric:   1.250207510E-02
   @S^2 Expected:                3.750000000E+00
   @S^2 Observed:                3.762502075E+00
   @S   Expected:                1.500000000E+00
   @S   Observed:                1.500000000E+00

    Orbital Energies [Eh]
    ---------------------

    Alpha Occupied:                                                       

       1B1u  -89.054503     1Ag   -89.054499     2Ag    -7.964586  
       2B1u   -7.964527     1B2g   -5.873870     1B3g   -5.873870  
       1B3u   -5.873863     1B2u   -5.873863     3Ag    -5.872408  
       3B1u   -5.872125     4Ag    -0.726349     4B1u   -0.562755  
       5Ag    -0.295926     2B3u   -0.265657     2B2u   -0.265657  
       2B2g   -0.150997     2B3g   -0.150997     5B1u    0.023160  

    Alpha Virtual:                                                        

       6B1u    0.192599     6Ag     0.192744     3B3u    0.196540  
       3B2u    0.196540     3B2g    0.218404     3B3g    0.218404  
       7Ag     0.227218     7B1u    0.325971     8Ag     0.351693  
       1B1g    0.351693     4B3u    0.399850     4B2u    0.399850  
       9Ag     0.420743     8B1u    0.449057     1Au     0.449057  
       9B1u    0.487179     4B2g    0.499593     4B3g    0.499593  
       5B3u    0.621055     5B2u    0.621055    10B1u    0.704322  
      10Ag     0.721448     5B3g    0.725917     5B2g    0.725917  
       6B3u    0.726257     6B2u    0.726257    11Ag     0.738217  
      12Ag     0.754551     2B1g    0.754551    13Ag     0.821186  
       2Au     0.829170    11B1u    0.829174     7B2u    0.880539  
       7B3u    0.880539     6B2g    0.904646     6B3g    0.904646  
       3B1g    0.940916    14Ag     0.940921    12B1u    1.003856  
       7B3g    1.014710     7B2g    1.014710     8B3u    1.171979  
       8B2u    1.171979    13B1u    1.203139     3Au     1.203152  
      14B1u    1.207714     8B3g    1.367254     8B2g    1.367254  
      15Ag     1.424969    15B1u    1.592713     4B1g    1.930318  
      16Ag     1.930326     4Au     2.000968    16B1u    2.000977  
      17B1u    2.007155     9B3u    2.013241     9B2u    2.013241  
       9B3g    2.129927     9B2g    2.129927    17Ag     2.145394  
      10B3u    2.186618    10B2u    2.186618     5B1g    2.238794  
      18Ag     2.238796    11B3u    2.246360    11B2u    2.246360  
      19Ag     2.246369    12B2u    2.268025    12B3u    2.268025  
      10B3g    2.323450    10B2g    2.323450    18B1u    2.450763  
       5Au     2.450771    11B2g    2.453576    11B3g    2.453576  
      19B1u    2.575502    20Ag     2.633241    12B3g    2.745937  
      12B2g    2.745937    20B1u    3.808365    21Ag     4.597630  
      21B1u    5.461131  

    Beta Occupied:                                                        

       1B1u  -89.046816     1Ag   -89.046815     2Ag    -7.956665  
       2B1u   -7.956542     3Ag    -5.864305     3B1u   -5.864029  
       1B3u   -5.859469     1B2u   -5.859469     1B2g   -5.859448  
       1B3g   -5.859448     4Ag    -0.687660     4B1u   -0.497294  
       5Ag    -0.248350     2B3u   -0.201462     2B2u   -0.201462  

    Beta Virtual:                                                         

       2B2g    0.117122     2B3g    0.117122     5B1u    0.189226  
       3B3u    0.203318     3B2u    0.203318     6Ag     0.230753  
       3B2g    0.240672     3B3g    0.240672     7Ag     0.246344  
       6B1u    0.268446     7B1u    0.346874     1B1g    0.360249  
       8Ag     0.360249     4B3u    0.422640     4B2u    0.422640  
       9Ag     0.450378     1Au     0.458648     8B1u    0.458648  
       9B1u    0.514688     4B2g    0.517804     4B3g    0.517804  
       5B2u    0.637303     5B3u    0.637303    10Ag     0.733748  
      10B1u    0.736680     5B3g    0.742882     5B2g    0.742882  
       6B3u    0.753311     6B2u    0.753311    11Ag     0.760240  
      12Ag     0.778080     2B1g    0.778081    13Ag     0.855826  
       2Au     0.869289    11B1u    0.869294     7B2u    0.886672  
       7B3u    0.886672     6B2g    0.943362     6B3g    0.943362  
       3B1g    0.957160    14Ag     0.957165     7B3g    1.023433  
       7B2g    1.023433    12B1u    1.039027     8B3u    1.190429  
       8B2u    1.190429    13B1u    1.216654     3Au     1.216666  
      14B1u    1.220144     8B3g    1.398740     8B2g    1.398740  
      15Ag     1.469136    15B1u    1.643501     4B1g    1.990362  
      16Ag     1.990371    16B1u    2.044531     9B3u    2.045679  
       9B2u    2.045679     4Au     2.060254    17B1u    2.060265  
      17Ag     2.164139     9B3g    2.179871     9B2g    2.179871  
      10B3u    2.216060    10B2u    2.216060     5B1g    2.274482  
      18Ag     2.274483    19Ag     2.280504    11B3u    2.308995  
      11B2u    2.308995    12B2u    2.323920    12B3u    2.323920  
      10B3g    2.377748    10B2g    2.377748    18B1u    2.489374  
       5Au     2.489382    11B2g    2.497707    11B3g    2.497707  
      19B1u    2.606764    20Ag     2.663318    12B3g    2.783841  
      12B2g    2.783841    20B1u    3.832892    21Ag     4.630819  
      21B1u    5.495901  

    Final Occupation by Irrep:
             Ag   B1g   B2g   B3g    Au   B1u   B2u   B3u 
    DOCC [     5,    0,    1,    1,    0,    4,    2,    2 ]
    SOCC [     0,    0,    1,    1,    0,    1,    0,    0 ]

  @DF-UKS Final Energy:  -796.32851142507582

   => Energetics <=

    Nuclear Repulsion Energy =             66.5025819775940192
    One-Electron Energy =               -1238.1993166594552349
    Two-Electron Energy =                 414.8333450375192797
    DFT Exchange-Correlation Energy =     -39.6012423952272954
    Empirical Dispersion Energy =           0.0000000000000000
    VV10 Nonlocal Energy =                  0.1361206144933980
    Total Energy =                       -796.3285114250758170

  UHF NO Occupations:
  HONO-2 :    2B2g 1.0000000
  HONO-1 :    5B1u 1.0000000
  HONO-0 :    2B3g 1.0000000
  LUNO+0 :    3B3u 0.0025650
  LUNO+1 :    3B2u 0.0025650
  LUNO+2 :    6 Ag 0.0008034
  LUNO+3 :    6B1u 0.0002426


Computation Completed


Properties will be evaluated at   0.000000,   0.000000,   0.000000 [a0]

Properties computed using the SCF density matrix

  Nuclear Dipole Moment: [e a0]
     X:     0.0000      Y:     0.0000      Z:     0.0000

  Electronic Dipole Moment: [e a0]
     X:     0.0000      Y:     0.0000      Z:     0.0000

  Dipole Moment: [e a0]
     X:     0.0000      Y:     0.0000      Z:     0.0000     Total:     0.0000

  Dipole Moment: [D]
     X:     0.0000      Y:     0.0000      Z:     0.0000     Total:     0.0000


*** tstop() called on c4-11.compute.lan at Tue Feb  2 12:12:15 2021
Module time:
	user time   =      22.01 seconds =       0.37 minutes
	system time =       0.15 seconds =       0.00 minutes
	total time  =         22 seconds =       0.37 minutes
Total time:
	user time   =     104.74 seconds =       1.75 minutes
	system time =       1.18 seconds =       0.02 minutes
	total time  =        106 seconds =       1.77 minutes

  //>>>>>>>>>>>>>>>>>>>>>>>>>>>>>>>>>>>//
  //    Loading displacement 2 of 3    //
  //<<<<<<<<<<<<<<<<<<<<<<<<<<<<<<<<<<<//

*** tstart() called on c4-11.compute.lan
*** at Tue Feb  2 12:12:15 2021

   => Loading Basis Set <=

    Name: AUG-CC-PVTZ
    Role: ORBITAL
    Keyword: BASIS
    atoms 1-2 entry S          line   906 file /apps/gb/PSI4/1.4.0/share/psi4/basis/aug-cc-pvtz.gbs 


         ---------------------------------------------------------
                                   SCF
               by Justin Turney, Rob Parrish, Andy Simmonett
                          and Daniel G. A. Smith
                              UKS Reference
                        1 Threads,   9536 MiB Core
         ---------------------------------------------------------

  ==> Geometry <==

    Molecular point group: d2h
    Full point group: D_inf_h

    Geometry (in Angstrom), charge = -1, multiplicity = 4:

       Center              X                  Y                   Z               Mass       
    ------------   -----------------  -----------------  -----------------  -----------------
         S            0.000000000000     0.000000000000    -1.018857995241    31.972071174400
         S            0.000000000000     0.000000000000     1.018857995241    31.972071174400

  Running in d2h symmetry.

  Rotational constants: A = ************  B =      0.25396  C =      0.25396 [cm^-1]
  Rotational constants: A = ************  B =   7613.58353  C =   7613.58353 [MHz]
  Nuclear repulsion =   66.480984869441954

  Charge       = -1
  Multiplicity = 4
  Electrons    = 33
  Nalpha       = 18
  Nbeta        = 15

  ==> Algorithm <==

  SCF Algorithm Type is DF.
  DIIS enabled.
  MOM disabled.
  Fractional occupation disabled.
  Guess Type is READ.
  Energy threshold   = 1.00e-08
  Density threshold  = 1.00e-08
  Integral threshold = 0.00e+00

  ==> Primary Basis <==

  Basis Set: AUG-CC-PVTZ
    Blend: AUG-CC-PVTZ
    Number of shells: 32
    Number of basis function: 100
    Number of Cartesian functions: 118
    Spherical Harmonics?: true
    Max angular momentum: 3

  ==> DFT Potential <==

   => Composite Functional: WB97M-V <= 

    wB97M-V Hyb-GGA Exchange-Correlation Functional

    N. Mardirossian and M. Head-Gordon, J. Chem. Phys. 144, 214110 (2016)

    Deriv               =              1
    GGA                 =           TRUE
    Meta                =           TRUE

    Exchange Hybrid     =           TRUE
    MP2 Hybrid          =          FALSE

   => Exchange-Correlation Functionals <=

    1.0000   wB97M-V exchange-correlation functional

   => Exact (HF) Exchange <=

    0.8500            HF,LR [omega = 0.3000]
    0.1500               HF 

   => VV10 Non-Local Parameters <=

    VV10 B              =     6.0000E+00
    VV10 C              =     1.0000E-02

   => Molecular Quadrature <=

    Radial Scheme          =       TREUTLER
    Pruning Scheme         =           NONE
    Nuclear Scheme         =       TREUTLER

    BS radius alpha        =              1
    Pruning alpha          =              1
    Radial Points          =             99
    Spherical Points       =            590
    Total Points           =         113402
    Total Blocks           =            984
    Max Points             =            256
    Max Functions          =            100
    Weights Tolerance      =       1.00E-15

   => Loading Basis Set <=

    Name: (AUG-CC-PVTZ AUX)
    Role: JKFIT
    Keyword: DF_BASIS_SCF
    atoms 1-2 entry S          line   730 file /apps/gb/PSI4/1.4.0/share/psi4/basis/aug-cc-pvtz-jkfit.gbs 

   => Loading Basis Set <=

    Name: AUG-CC-PVTZ
    Role: ORBITAL
    Keyword: BASIS
    atoms 1-2 entry S          line   906 file /apps/gb/PSI4/1.4.0/share/psi4/basis/aug-cc-pvtz.gbs 

  Reading orbitals from file 180, no projection.

  ==> Pre-Iterations <==

   -------------------------------------------------------
    Irrep   Nso     Nmo     Nalpha   Nbeta   Ndocc  Nsocc
   -------------------------------------------------------
     Ag        21      21       0       0       0       0
     B1g        5       5       0       0       0       0
     B2g       12      12       0       0       0       0
     B3g       12      12       0       0       0       0
     Au         5       5       0       0       0       0
     B1u       21      21       0       0       0       0
     B2u       12      12       0       0       0       0
     B3u       12      12       0       0       0       0
   -------------------------------------------------------
    Total     100     100      18      15      15       3
   -------------------------------------------------------

  ==> Integral Setup <==

  ==> DiskDFJK: Density-Fitted J/K Matrices <==

    J tasked:                  Yes
    K tasked:                  Yes
    wK tasked:                 Yes
    Omega:               3.000E-01
    OpenMP threads:              1
    Integrals threads:           1
    Memory [MiB]:             6378
    Algorithm:                Core
    Integral Cache:           NONE
    Schwarz Cutoff:          1E-12
    Fitting Condition:       1E-10

   => Auxiliary Basis Set <=

  Basis Set: (AUG-CC-PVTZ AUX)
    Blend: AUG-CC-PVTZ-JKFIT
    Number of shells: 84
    Number of basis function: 292
    Number of Cartesian functions: 360
    Spherical Harmonics?: true
    Max angular momentum: 4

  Cached 100.0% of DFT collocation blocks in 0.756 [GiB].

  Minimum eigenvalue in the overlap matrix is 2.9645776225E-04.
  Using Symmetric Orthogonalization.

  SCF Guess: Orbitals guess was supplied from a previous computation.

  ==> Iterations <==

                           Total Energy        Delta E     RMS |[F,P]|

   @DF-UKS iter   0:  -796.32822275867966   -7.96328e+02   1.03595e-04 
   @DF-UKS iter   1:  -796.32853545949422   -3.12701e-04   4.34340e-06 DIIS
   @DF-UKS iter   2:  -796.32853549219044   -3.26962e-08   2.42792e-06 DIIS
   @DF-UKS iter   3:  -796.32853550192658   -9.73614e-09   1.01451e-06 DIIS
   @DF-UKS iter   4:  -796.32853550620325   -4.27667e-09   4.68537e-07 DIIS
   @DF-UKS iter   5:  -796.32853550762252   -1.41927e-09   2.14606e-07 DIIS
   @DF-UKS iter   6:  -796.32853550796835   -3.45835e-10   6.10779e-08 DIIS
   @DF-UKS iter   7:  -796.32853550800223   -3.38787e-11   1.17130e-08 DIIS
   @DF-UKS iter   8:  -796.32853550800360   -1.36424e-12   1.93516e-09 DIIS
  Energy and wave function converged.


  ==> Post-Iterations <==

   @Spin Contamination Metric:   1.251632615E-02
   @S^2 Expected:                3.750000000E+00
   @S^2 Observed:                3.762516326E+00
   @S   Expected:                1.500000000E+00
   @S   Observed:                1.500000000E+00

    Orbital Energies [Eh]
    ---------------------

    Alpha Occupied:                                                       

       1B1u  -89.054355     1Ag   -89.054352     2Ag    -7.964434  
       2B1u   -7.964375     1B2g   -5.873720     1B3g   -5.873720  
       1B3u   -5.873713     1B2u   -5.873713     3Ag    -5.872257  
       3B1u   -5.871975     4Ag    -0.726069     4B1u   -0.562684  
       5Ag    -0.295776     2B3u   -0.265456     2B2u   -0.265456  
       2B2g   -0.150926     2B3g   -0.150926     5B1u    0.023049  

    Alpha Virtual:                                                        

       6B1u    0.192561     6Ag     0.192813     3B2u    0.196593  
       3B3u    0.196593     3B3g    0.218451     3B2g    0.218451  
       7Ag     0.227298     7B1u    0.326053     8Ag     0.351784  
       1B1g    0.351784     4B2u    0.399924     4B3u    0.399924  
       9Ag     0.420940     8B1u    0.449106     1Au     0.449106  
       9B1u    0.487259     4B3g    0.499696     4B2g    0.499696  
       5B3u    0.621170     5B2u    0.621170    10B1u    0.704458  
      10Ag     0.721642     5B3g    0.726000     5B2g    0.726000  
       6B3u    0.726400     6B2u    0.726400    11Ag     0.738381  
      12Ag     0.754713     2B1g    0.754714    13Ag     0.821173  
       2Au     0.829257    11B1u    0.829261     7B2u    0.880662  
       7B3u    0.880662     6B3g    0.904676     6B2g    0.904676  
       3B1g    0.940933    14Ag     0.940938    12B1u    1.003779  
       7B3g    1.014753     7B2g    1.014753     8B3u    1.171949  
       8B2u    1.171949    13B1u    1.203130     3Au     1.203142  
      14B1u    1.207561     8B3g    1.367279     8B2g    1.367279  
      15Ag     1.424870    15B1u    1.592837     4B1g    1.930435  
      16Ag     1.930442     4Au     2.001060    16B1u    2.001068  
      17B1u    2.007434     9B3u    2.013404     9B2u    2.013404  
       9B2g    2.130143     9B3g    2.130143    17Ag     2.145713  
      10B3u    2.186707    10B2u    2.186707     5B1g    2.239106  
      18Ag     2.239108    11B3u    2.246481    11B2u    2.246481  
      19Ag     2.246643    12B2u    2.268178    12B3u    2.268178  
      10B3g    2.323539    10B2g    2.323539    18B1u    2.450678  
       5Au     2.450685    11B3g    2.453346    11B2g    2.453346  
      19B1u    2.575322    20Ag     2.632329    12B2g    2.745616  
      12B3g    2.745616    20B1u    3.807961    21Ag     4.596821  
      21B1u    5.461107  

    Beta Occupied:                                                        

       1B1u  -89.046664     1Ag   -89.046663     2Ag    -7.956509  
       2B1u   -7.956386     3Ag    -5.864140     3B1u   -5.863865  
       1B3u   -5.859316     1B2u   -5.859316     1B2g   -5.859295  
       1B3g   -5.859295     4Ag    -0.687343     4B1u   -0.497203  
       5Ag    -0.248136     2B3u   -0.201233     2B2u   -0.201233  

    Beta Virtual:                                                         

       2B3g    0.117179     2B2g    0.117179     5B1u    0.189188  
       3B3u    0.203349     3B2u    0.203349     6Ag     0.230810  
       3B3g    0.240628     3B2g    0.240628     7Ag     0.246365  
       6B1u    0.268393     7B1u    0.346877     1B1g    0.360337  
       8Ag     0.360337     4B2u    0.422697     4B3u    0.422697  
       9Ag     0.450492     1Au     0.458689     8B1u    0.458689  
       9B1u    0.514701     4B3g    0.517849     4B2g    0.517849  
       5B3u    0.637419     5B2u    0.637419    10Ag     0.733881  
      10B1u    0.736791     5B3g    0.742939     5B2g    0.742939  
       6B3u    0.753437     6B2u    0.753437    11Ag     0.760425  
      12Ag     0.778252     2B1g    0.778252    13Ag     0.855836  
       2Au     0.869374    11B1u    0.869378     7B2u    0.886793  
       7B3u    0.886793     6B3g    0.943387     6B2g    0.943387  
       3B1g    0.957176    14Ag     0.957181     7B3g    1.023476  
       7B2g    1.023476    12B1u    1.038958     8B2u    1.190410  
       8B3u    1.190410    13B1u    1.216644     3Au     1.216656  
      14B1u    1.219992     8B3g    1.398758     8B2g    1.398758  
      15Ag     1.469019    15B1u    1.643611     4B1g    1.990487  
      16Ag     1.990497    16B1u    2.044838     9B3u    2.045901  
       9B2u    2.045901     4Au     2.060352    17B1u    2.060363  
      17Ag     2.164479     9B2g    2.180084     9B3g    2.180084  
      10B3u    2.216149    10B2u    2.216149     5B1g    2.274818  
      18Ag     2.274820    19Ag     2.280820    11B3u    2.309121  
      11B2u    2.309121    12B2u    2.324083    12B3u    2.324083  
      10B3g    2.377845    10B2g    2.377845    18B1u    2.489300  
       5Au     2.489308    11B3g    2.497507    11B2g    2.497507  
      19B1u    2.606600    20Ag     2.662444    12B2g    2.783529  
      12B3g    2.783529    20B1u    3.832481    21Ag     4.630012  
      21B1u    5.495878  

    Final Occupation by Irrep:
             Ag   B1g   B2g   B3g    Au   B1u   B2u   B3u 
    DOCC [     5,    0,    1,    1,    0,    4,    2,    2 ]
    SOCC [     0,    0,    1,    1,    0,    1,    0,    0 ]

  @DF-UKS Final Energy:  -796.32853550800360

   => Energetics <=

    Nuclear Repulsion Energy =             66.4809848694419543
    One-Electron Energy =               -1238.1612633154211380
    Two-Electron Energy =                 414.8168393978353947
    DFT Exchange-Correlation Energy =     -39.6012178863557693
    Empirical Dispersion Energy =           0.0000000000000000
    VV10 Nonlocal Energy =                  0.1361214264960155
    Total Energy =                       -796.3285355080035970

  UHF NO Occupations:
  HONO-2 :    5B1u 1.0000000
  HONO-1 :    2B2g 1.0000000
  HONO-0 :    2B3g 1.0000000
  LUNO+0 :    3B2u 0.0025683
  LUNO+1 :    3B3u 0.0025683
  LUNO+2 :    6 Ag 0.0008043
  LUNO+3 :    6B1u 0.0002423


Computation Completed


Properties will be evaluated at   0.000000,   0.000000,   0.000000 [a0]

Properties computed using the SCF density matrix

  Nuclear Dipole Moment: [e a0]
     X:     0.0000      Y:     0.0000      Z:     0.0000

  Electronic Dipole Moment: [e a0]
     X:     0.0000      Y:     0.0000      Z:     0.0000

  Dipole Moment: [e a0]
     X:     0.0000      Y:     0.0000      Z:     0.0000     Total:     0.0000

  Dipole Moment: [D]
     X:     0.0000      Y:     0.0000      Z:     0.0000     Total:     0.0000


*** tstop() called on c4-11.compute.lan at Tue Feb  2 12:12:34 2021
Module time:
	user time   =      19.01 seconds =       0.32 minutes
	system time =       0.14 seconds =       0.00 minutes
	total time  =         19 seconds =       0.32 minutes
Total time:
	user time   =     123.76 seconds =       2.06 minutes
	system time =       1.32 seconds =       0.02 minutes
	total time  =        125 seconds =       2.08 minutes

  //>>>>>>>>>>>>>>>>>>>>>>>>>>>>>>>>>>>//
  //    Loading displacement 3 of 3    //
  //<<<<<<<<<<<<<<<<<<<<<<<<<<<<<<<<<<<//

*** tstart() called on c4-11.compute.lan
*** at Tue Feb  2 12:12:34 2021

   => Loading Basis Set <=

    Name: AUG-CC-PVTZ
    Role: ORBITAL
    Keyword: BASIS
    atoms 1-2 entry S          line   906 file /apps/gb/PSI4/1.4.0/share/psi4/basis/aug-cc-pvtz.gbs 


         ---------------------------------------------------------
                                   SCF
               by Justin Turney, Rob Parrish, Andy Simmonett
                          and Daniel G. A. Smith
                              UKS Reference
                        1 Threads,   9536 MiB Core
         ---------------------------------------------------------

  ==> Geometry <==

    Molecular point group: d2h
    Full point group: D_inf_h

    Geometry (in Angstrom), charge = -1, multiplicity = 4:

       Center              X                  Y                   Z               Mass       
    ------------   -----------------  -----------------  -----------------  -----------------
         S            0.000000000000     0.000000000000    -1.018196234881    31.972071174400
         S            0.000000000000     0.000000000000     1.018196234881    31.972071174400

  Running in d2h symmetry.

  Rotational constants: A = ************  B =      0.25429  C =      0.25429 [cm^-1]
  Rotational constants: A = ************  B =   7623.48340  C =   7623.48340 [MHz]
  Nuclear repulsion =   66.524193122441162

  Charge       = -1
  Multiplicity = 4
  Electrons    = 33
  Nalpha       = 18
  Nbeta        = 15

  ==> Algorithm <==

  SCF Algorithm Type is DF.
  DIIS enabled.
  MOM disabled.
  Fractional occupation disabled.
  Guess Type is READ.
  Energy threshold   = 1.00e-08
  Density threshold  = 1.00e-08
  Integral threshold = 0.00e+00

  ==> Primary Basis <==

  Basis Set: AUG-CC-PVTZ
    Blend: AUG-CC-PVTZ
    Number of shells: 32
    Number of basis function: 100
    Number of Cartesian functions: 118
    Spherical Harmonics?: true
    Max angular momentum: 3

  ==> DFT Potential <==

   => Composite Functional: WB97M-V <= 

    wB97M-V Hyb-GGA Exchange-Correlation Functional

    N. Mardirossian and M. Head-Gordon, J. Chem. Phys. 144, 214110 (2016)

    Deriv               =              1
    GGA                 =           TRUE
    Meta                =           TRUE

    Exchange Hybrid     =           TRUE
    MP2 Hybrid          =          FALSE

   => Exchange-Correlation Functionals <=

    1.0000   wB97M-V exchange-correlation functional

   => Exact (HF) Exchange <=

    0.8500            HF,LR [omega = 0.3000]
    0.1500               HF 

   => VV10 Non-Local Parameters <=

    VV10 B              =     6.0000E+00
    VV10 C              =     1.0000E-02

   => Molecular Quadrature <=

    Radial Scheme          =       TREUTLER
    Pruning Scheme         =           NONE
    Nuclear Scheme         =       TREUTLER

    BS radius alpha        =              1
    Pruning alpha          =              1
    Radial Points          =             99
    Spherical Points       =            590
    Total Points           =         113394
    Total Blocks           =            980
    Max Points             =            256
    Max Functions          =            100
    Weights Tolerance      =       1.00E-15

   => Loading Basis Set <=

    Name: (AUG-CC-PVTZ AUX)
    Role: JKFIT
    Keyword: DF_BASIS_SCF
    atoms 1-2 entry S          line   730 file /apps/gb/PSI4/1.4.0/share/psi4/basis/aug-cc-pvtz-jkfit.gbs 

   => Loading Basis Set <=

    Name: AUG-CC-PVTZ
    Role: ORBITAL
    Keyword: BASIS
    atoms 1-2 entry S          line   906 file /apps/gb/PSI4/1.4.0/share/psi4/basis/aug-cc-pvtz.gbs 

  Reading orbitals from file 180, no projection.

  ==> Pre-Iterations <==

   -------------------------------------------------------
    Irrep   Nso     Nmo     Nalpha   Nbeta   Ndocc  Nsocc
   -------------------------------------------------------
     Ag        21      21       0       0       0       0
     B1g        5       5       0       0       0       0
     B2g       12      12       0       0       0       0
     B3g       12      12       0       0       0       0
     Au         5       5       0       0       0       0
     B1u       21      21       0       0       0       0
     B2u       12      12       0       0       0       0
     B3u       12      12       0       0       0       0
   -------------------------------------------------------
    Total     100     100      18      15      15       3
   -------------------------------------------------------

  ==> Integral Setup <==

  ==> DiskDFJK: Density-Fitted J/K Matrices <==

    J tasked:                  Yes
    K tasked:                  Yes
    wK tasked:                 Yes
    Omega:               3.000E-01
    OpenMP threads:              1
    Integrals threads:           1
    Memory [MiB]:             6378
    Algorithm:                Core
    Integral Cache:           NONE
    Schwarz Cutoff:          1E-12
[...]

  ==> Geometry <==

    Molecular point group: d2h
    Full point group: D_inf_h

    Geometry (in Angstrom), charge = -1, multiplicity = 4:

       Center              X                  Y                   Z               Mass       
    ------------   -----------------  -----------------  -----------------  -----------------
         S            0.000000000000     0.000000000000    -1.125333841161    31.972071174400
         S            0.000000000000     0.000000000000     1.125333841161    31.972071174400

  Running in d2h symmetry.

  Rotational constants: A = ************  B =      0.20818  C =      0.20818 [cm^-1]
  Rotational constants: A = ************  B =   6240.99269  C =   6240.99269 [MHz]
  Nuclear repulsion =   60.190745615439930

  Charge       = -1
  Multiplicity = 4
  Electrons    = 33
  Nalpha       = 18
  Nbeta        = 15

  ==> Algorithm <==

  SCF Algorithm Type is DF.
  DIIS enabled.
  MOM disabled.
  Fractional occupation disabled.
  Guess Type is SAD.
  Energy threshold   = 1.00e-10
  Density threshold  = 1.00e-10
  Integral threshold = 0.00e+00

  ==> Primary Basis <==

  Basis Set: AUG-CC-PVTZ
    Blend: AUG-CC-PVTZ
    Number of shells: 32
    Number of basis function: 100
    Number of Cartesian functions: 118
    Spherical Harmonics?: true
    Max angular momentum: 3

  ==> DFT Potential <==

   => Composite Functional: WB97M-V <= 

    wB97M-V Hyb-GGA Exchange-Correlation Functional

    N. Mardirossian and M. Head-Gordon, J. Chem. Phys. 144, 214110 (2016)

    Deriv               =              1
    GGA                 =           TRUE
    Meta                =           TRUE

    Exchange Hybrid     =           TRUE
    MP2 Hybrid          =          FALSE

   => Exchange-Correlation Functionals <=

    1.0000   wB97M-V exchange-correlation functional

   => Exact (HF) Exchange <=

    0.8500            HF,LR [omega = 0.3000]
    0.1500               HF 

   => VV10 Non-Local Parameters <=

    VV10 B              =     6.0000E+00
    VV10 C              =     1.0000E-02

   => Molecular Quadrature <=

    Radial Scheme          =       TREUTLER
    Pruning Scheme         =           NONE
    Nuclear Scheme         =       TREUTLER

    BS radius alpha        =              1
    Pruning alpha          =              1
    Radial Points          =             99
    Spherical Points       =            590
    Total Points           =         113430
    Total Blocks           =            974
    Max Points             =            256
    Max Functions          =            100
    Weights Tolerance      =       1.00E-15

   => Loading Basis Set <=

    Name: (AUG-CC-PVTZ AUX)
    Role: JKFIT
    Keyword: DF_BASIS_SCF
    atoms 1-2 entry S          line   730 file /apps/gb/PSI4/1.4.0/share/psi4/basis/aug-cc-pvtz-jkfit.gbs 

  ==> Pre-Iterations <==

   -------------------------------------------------------
    Irrep   Nso     Nmo     Nalpha   Nbeta   Ndocc  Nsocc
   -------------------------------------------------------
     Ag        21      21       0       0       0       0
     B1g        5       5       0       0       0       0
     B2g       12      12       0       0       0       0
     B3g       12      12       0       0       0       0
     Au         5       5       0       0       0       0
     B1u       21      21       0       0       0       0
     B2u       12      12       0       0       0       0
     B3u       12      12       0       0       0       0
   -------------------------------------------------------
    Total     100     100      18      15      15       3
   -------------------------------------------------------

  ==> Integral Setup <==

  ==> DiskDFJK: Density-Fitted J/K Matrices <==

    J tasked:                  Yes
    K tasked:                  Yes
    wK tasked:                 Yes
    Omega:               3.000E-01
    OpenMP threads:              1
    Integrals threads:           1
    Memory [MiB]:             6381
    Algorithm:                Core
    Integral Cache:           NONE
    Schwarz Cutoff:          1E-12
    Fitting Condition:       1E-10

   => Auxiliary Basis Set <=

  Basis Set: (AUG-CC-PVTZ AUX)
    Blend: AUG-CC-PVTZ-JKFIT
    Number of shells: 84
    Number of basis function: 292
    Number of Cartesian functions: 360
    Spherical Harmonics?: true
    Max angular momentum: 4

  Cached 100.0% of DFT collocation blocks in 0.753 [GiB].

  Minimum eigenvalue in the overlap matrix is 4.7586372554E-04.
  Using Symmetric Orthogonalization.

  SCF Guess: Superposition of Atomic Densities via on-the-fly atomic UHF.

  ==> Iterations <==

                           Total Energy        Delta E     RMS |[F,P]|

   @DF-UKS iter SAD:  -795.61927802328387   -7.95619e+02   0.00000e+00 
   @DF-UKS iter   1:  -796.25516957064087   -6.35892e-01   9.35013e-03 DIIS
   @DF-UKS iter   2:  -796.30643185103565   -5.12623e-02   6.13334e-03 DIIS
   @DF-UKS iter   3:  -796.33212777592871   -2.56959e-02   6.01715e-04 DIIS
   @DF-UKS iter   4:  -796.33259064012623   -4.62864e-04   2.29758e-04 DIIS
   @DF-UKS iter   5:  -796.33272299071587   -1.32351e-04   4.44221e-05 DIIS
   @DF-UKS iter   6:  -796.33273421135664   -1.12206e-05   1.58034e-05 DIIS
   @DF-UKS iter   7:  -796.33273650637318   -2.29502e-06   6.60079e-06 DIIS
   @DF-UKS iter   8:  -796.33273687188751   -3.65514e-07   1.13047e-06 DIIS
   @DF-UKS iter   9:  -796.33273688211193   -1.02244e-08   2.88744e-07 DIIS
   @DF-UKS iter  10:  -796.33273688234272   -2.30784e-10   4.78717e-08 DIIS
   @DF-UKS iter  11:  -796.33273688234999   -7.27596e-12   6.97800e-09 DIIS
   @DF-UKS iter  12:  -796.33273688235022   -2.27374e-13   1.20890e-09 DIIS
   @DF-UKS iter  13:  -796.33273688235045   -2.27374e-13   2.14252e-10 DIIS
   @DF-UKS iter  14:  -796.33273688235033    1.13687e-13   5.08579e-11 DIIS
  Energy and wave function converged.


  ==> Post-Iterations <==

   @Spin Contamination Metric:   1.691711815E-02
   @S^2 Expected:                3.750000000E+00
   @S^2 Observed:                3.766917118E+00
   @S   Expected:                1.500000000E+00
   @S   Observed:                1.500000000E+00

    Orbital Energies [Eh]
    ---------------------

    Alpha Occupied:                                                       

       1B1u  -89.021535     1Ag   -89.021530     2Ag    -7.931047  
       2B1u   -7.931033     1B2g   -5.840769     1B3g   -5.840769  
       1B3u   -5.840750     1B2u   -5.840750     3Ag    -5.839263  
       3B1u   -5.839188     4Ag    -0.658216     4B1u   -0.551624  
       5Ag    -0.259434     2B2u   -0.218304     2B3u   -0.218304  
       2B2g   -0.138665     2B3g   -0.138665     5B1u   -0.016918  

    Alpha Virtual:                                                        

       6B1u    0.178479     3B3u    0.207368     3B2u    0.207368  
       6Ag     0.211622     3B3g    0.224938     3B2g    0.224938  
       7Ag     0.244658     7B1u    0.337141     8Ag     0.371981  
       1B1g    0.371981     4B2u    0.412898     4B3u    0.412898  
       9Ag     0.454287     8B1u    0.457023     1Au     0.457025  
       9B1u    0.489851     4B3g    0.517182     4B2g    0.517182  
       5B2u    0.645640     5B3u    0.645640    10B1u    0.733994  
       5B3g    0.738612     5B2g    0.738612    10Ag     0.757385  
       6B3u    0.760960     6B2u    0.760960    11Ag     0.776923  
       2B1g    0.793359    12Ag     0.793361    13Ag     0.811517  
       2Au     0.846350    11B1u    0.846351     6B3g    0.904828  
       6B2g    0.904828     7B2u    0.910035     7B3u    0.910035  
      14Ag     0.938296     3B1g    0.938301    12B1u    0.970233  
       7B3g    1.019671     7B2g    1.019671     8B3u    1.151804  
       8B2u    1.151804    13B1u    1.156209    14B1u    1.191404  
       3Au     1.191414     8B2g    1.364961     8B3g    1.364961  
      15Ag     1.377490    15B1u    1.598337     4B1g    1.956310  
      16Ag     1.956312     9B2u    2.009988     9B3u    2.009988  
       4Au     2.018321    16B1u    2.018326    17B1u    2.094849  
       9B2g    2.175078     9B3g    2.175078    17Ag     2.239383  
      10B3u    2.269971    10B2u    2.269971    11B2u    2.274894  
      11B3u    2.274894    18Ag     2.294614    12B3u    2.300410  
      12B2u    2.300410    19Ag     2.312723     5B1g    2.312726  
      10B2g    2.341731    10B3g    2.341731    11B2g    2.387413  
      11B3g    2.387413    20Ag     2.390358    18B1u    2.423246  
       5Au     2.423254    19B1u    2.518567    12B3g    2.635194  
      12B2g    2.635194    20B1u    3.535879    21Ag     4.390253  
      21B1u    5.476934  

    Beta Occupied:                                                        

       1B1u  -89.012765     1Ag   -89.012762     2Ag    -7.922087  
       2B1u   -7.922013     3Ag    -5.827002     3B1u   -5.826936  
       1B3u   -5.825753     1B2u   -5.825753     1B2g   -5.825749  
       1B3g   -5.825749     4Ag    -0.610282     4B1u   -0.480536  
       5Ag    -0.193534     2B2u   -0.146387     2B3u   -0.146387  

    Beta Virtual:                                                         

       2B3g    0.124948     2B2g    0.124948     5B1u    0.155049  
       6Ag     0.210242     3B2u    0.211351     3B3u    0.211351  
       3B3g    0.228894     3B2g    0.228894     6B1u    0.244756  
       7Ag     0.253341     7B1u    0.344683     8Ag     0.379694  
       1B1g    0.379694     4B2u    0.430560     4B3u    0.430560  
       8B1u    0.465526     1Au     0.465529     9Ag     0.473002  
       9B1u    0.501576     4B3g    0.524761     4B2g    0.524761  
       5B2u    0.662402     5B3u    0.662402     5B3g    0.750057  
       5B2g    0.750057    10Ag     0.756655    10B1u    0.759846  
       6B2u    0.784246     6B3u    0.784246    11Ag     0.804551  
       2B1g    0.819986    12Ag     0.819988    13Ag     0.852982  
       2Au     0.886118    11B1u    0.886119     7B2u    0.915740  
       7B3u    0.915740     6B3g    0.942334     6B2g    0.942334  
      14Ag     0.952756     3B1g    0.952760    12B1u    1.006940  
       7B3g    1.028036     7B2g    1.028036    13B1u    1.169443  
       8B3u    1.171459     8B2u    1.171459    14B1u    1.203428  
       3Au     1.203438     8B2g    1.391977     8B3g    1.391977  
      15Ag     1.416154    15B1u    1.645191    16Ag     2.018369  
       4B1g    2.018371     9B2u    2.057482     9B3u    2.057482  
       4Au     2.079329    16B1u    2.079330    17B1u    2.142933  
       9B2g    2.224356     9B3g    2.224356    17Ag     2.268317  
      10B3u    2.302141    10B2u    2.302141    18Ag     2.337839  
      11B2u    2.338828    11B3u    2.338828    19Ag     2.356158  
       5B1g    2.356162    12B3u    2.358850    12B2u    2.358850  
      10B2g    2.398421    10B3g    2.398421    20Ag     2.434409  
      11B2g    2.440852    11B3g    2.440852    18B1u    2.466300  
       5Au     2.466308    19B1u    2.556810    12B3g    2.674546  
      12B2g    2.674546    20B1u    3.559072    21Ag     4.424950  
      21B1u    5.508997  

    Final Occupation by Irrep:
             Ag   B1g   B2g   B3g    Au   B1u   B2u   B3u 
    DOCC [     5,    0,    1,    1,    0,    4,    2,    2 ]
    SOCC [     0,    0,    1,    1,    0,    1,    0,    0 ]

  @DF-UKS Final Energy:  -796.33273688235033

   => Energetics <=

    Nuclear Repulsion Energy =             60.1907456154399298
    One-Electron Energy =               -1226.7215643815648036
    Two-Electron Energy =                 409.6537038542638811
    DFT Exchange-Correlation Energy =     -39.5920707710515245
    Empirical Dispersion Energy =           0.0000000000000000
    VV10 Nonlocal Energy =                  0.1364488005623122
    Total Energy =                       -796.3327368823502184

  UHF NO Occupations:
  HONO-2 :    2B3g 1.0000000
  HONO-1 :    5B1u 1.0000000
  HONO-0 :    2B2g 1.0000000
  LUNO+0 :    3B2u 0.0038102
  LUNO+1 :    3B3u 0.0038102
  LUNO+2 :    6 Ag 0.0007067
  LUNO+3 :    6B1u 0.0000879


Computation Completed


Properties will be evaluated at   0.000000,   0.000000,   0.000000 [a0]

Properties computed using the SCF density matrix

  Nuclear Dipole Moment: [e a0]
     X:     0.0000      Y:     0.0000      Z:     0.0000

  Electronic Dipole Moment: [e a0]
     X:     0.0000      Y:     0.0000      Z:     0.0000

  Dipole Moment: [e a0]
     X:     0.0000      Y:     0.0000      Z:     0.0000     Total:     0.0000

  Dipole Moment: [D]
     X:     0.0000      Y:     0.0000      Z:     0.0000     Total:     0.0000


*** tstop() called on c4-11.compute.lan at Tue Feb  2 12:20:47 2021
Module time:
	user time   =      29.25 seconds =       0.49 minutes
	system time =       0.15 seconds =       0.00 minutes
	total time  =         30 seconds =       0.50 minutes
Total time:
	user time   =     611.03 seconds =      10.18 minutes
	system time =       4.61 seconds =       0.08 minutes
	total time  =        618 seconds =      10.30 minutes

         ----------------------------------------------------------
                                   FINDIF
                     R. A. King and Jonathon Misiewicz
         ---------------------------------------------------------

  Computing second-derivative from energies using projected, 
  symmetry-adapted, cartesian coordinates.

  3 energies passed in, including the reference geometry.
    Using 3-point formula.
    Energy without displacement: -796.3327369301
    Check energies below for precision!
    0: -1 :      -796.3327368829
    0: 1  :      -796.3327368824

-------------------------------------------------------------


  ==> Harmonic Vibrational Analysis <==

  non-mass-weighted Hessian:       Symmetric? True   Hermitian? True   Lin Dep Dim?  5 (0)
  projection of translations (True) and rotations (True) removed 5 degrees of freedom (5)
  total projector:                 Symmetric? True   Hermitian? True   Lin Dep Dim?  5 (5)
  mass-weighted Hessian:           Symmetric? True   Hermitian? True   Lin Dep Dim?  5 (0)
  pre-proj  low-frequency mode:    0.0000  [cm^-1]
  pre-proj  low-frequency mode:    0.0000  [cm^-1]
  pre-proj  low-frequency mode:    0.0000  [cm^-1]
  pre-proj  low-frequency mode:    0.0000  [cm^-1]
  pre-proj  low-frequency mode:    0.0000  [cm^-1]
  pre-proj  all modes:['0.0000' '0.0000' '0.0000' '0.0000' '0.0000' '316.7533']
  projected mass-weighted Hessian: Symmetric? True   Hermitian? True   Lin Dep Dim?  5 (5)
  post-proj low-frequency mode:    0.0000  [cm^-1] (TR)
  post-proj low-frequency mode:    0.0000  [cm^-1] (TR)
  post-proj low-frequency mode:    0.0000  [cm^-1] (TR)
  post-proj low-frequency mode:    0.0000  [cm^-1] (TR)
  post-proj low-frequency mode:    0.0000  [cm^-1] (TR)
  post-proj  all modes:['0.0000' '0.0000' '0.0000' '0.0000' '0.0000' '316.7533']

  Vibration                       6           
  Freq [cm^-1]                 316.7533       
  Irrep                           Ag          
  Reduced mass [u]             31.9721        
  Force const [mDyne/A]         1.8900        
  Turning point v=0 [a0]        0.1090        
  RMS dev v=0 [a0 u^1/2]        0.4359        
  Char temp [K]                455.7375       
  ----------------------------------------------------------------------------------
      1   S                0.00  0.00  0.71   
      2   S                0.00  0.00 -0.71   

  ==> Thermochemistry Components <==

  Entropy, S
    Electronic S            2.755 [cal/(mol K)]       11.526 [J/(mol K)]       0.00439013 [mEh/K] (multiplicity = 4)
    Translational S        38.385 [cal/(mol K)]      160.603 [J/(mol K)]       0.06117054 [mEh/K] (mol. weight = 63.9441 [u], P = 101325.00 [Pa])
    Rotational S           14.329 [cal/(mol K)]       59.952 [J/(mol K)]       0.02283464 [mEh/K] (symmetry no. = 2)
    Vibrational S           1.327 [cal/(mol K)]        5.551 [J/(mol K)]       0.00211441 [mEh/K]
  Total S                  56.796 [cal/(mol K)]      237.633 [J/(mol K)]       0.09050971 [mEh/K]
  Correction S              0.000 [cal/(mol K)]        0.000 [J/(mol K)]       0.00000000 [mEh/K]

  Constant volume heat capacity, Cv
    Electronic Cv           0.000 [cal/(mol K)]        0.000 [J/(mol K)]       0.00000000 [mEh/K]
    Translational Cv        2.981 [cal/(mol K)]       12.472 [J/(mol K)]       0.00475022 [mEh/K]
    Rotational Cv           1.987 [cal/(mol K)]        8.314 [J/(mol K)]       0.00316681 [mEh/K]
    Vibrational Cv          1.642 [cal/(mol K)]        6.869 [J/(mol K)]       0.00261608 [mEh/K]
  Total Cv                  6.610 [cal/(mol K)]       27.655 [J/(mol K)]       0.01053310 [mEh/K]
  Correction Cv             0.000 [cal/(mol K)]        0.000 [J/(mol K)]       0.00000000 [mEh/K]

  Constant pressure heat capacity, Cp
    Electronic Cp           0.000 [cal/(mol K)]        0.000 [J/(mol K)]       0.00000000 [mEh/K]
    Translational Cp        4.968 [cal/(mol K)]       20.786 [J/(mol K)]       0.00791703 [mEh/K]
    Rotational Cp           1.987 [cal/(mol K)]        8.314 [J/(mol K)]       0.00316681 [mEh/K]
    Vibrational Cp          1.642 [cal/(mol K)]        6.869 [J/(mol K)]       0.00261608 [mEh/K]
  Total Cp                  8.597 [cal/(mol K)]       35.969 [J/(mol K)]       0.01369991 [mEh/K]
  Correction Cp             0.000 [cal/(mol K)]        0.000 [J/(mol K)]       0.00000000 [mEh/K]

  ==> Thermochemistry Energy Analysis <==

  Raw electronic energy, E0
  Total E0, Electronic energy at well bottom at 0 [K]                 -796.33273693 [Eh]

  Zero-point energy, ZPE_vib = Sum_i nu_i / 2
    Electronic ZPE          0.000 [kcal/mol]        0.000 [kJ/mol]       0.00000000 [Eh]
    Translational ZPE       0.000 [kcal/mol]        0.000 [kJ/mol]       0.00000000 [Eh]
    Rotational ZPE          0.000 [kcal/mol]        0.000 [kJ/mol]       0.00000000 [Eh]
    Vibrational ZPE         0.453 [kcal/mol]        1.895 [kJ/mol]       0.00072162 [Eh]         158.377 [cm^-1]
  Correction ZPE            0.453 [kcal/mol]        1.895 [kJ/mol]       0.00072162 [Eh]         158.377 [cm^-1]
  Total ZPE, Electronic energy at 0 [K]                               -796.33201531 [Eh]

  Thermal Energy, E (includes ZPE)
    Electronic E            0.000 [kcal/mol]        0.000 [kJ/mol]       0.00000000 [Eh]
    Translational E         0.889 [kcal/mol]        3.718 [kJ/mol]       0.00141628 [Eh]
    Rotational E            0.592 [kcal/mol]        2.479 [kJ/mol]       0.00094418 [Eh]
    Vibrational E           0.704 [kcal/mol]        2.944 [kJ/mol]       0.00112124 [Eh]
  Correction E              2.185 [kcal/mol]        9.141 [kJ/mol]       0.00348170 [Eh]
  Total E, Electronic energy at  298.15 [K]                           -796.32925523 [Eh]

  Enthalpy, H_trans = E_trans + k_B * T
    Electronic H            0.000 [kcal/mol]        0.000 [kJ/mol]       0.00000000 [Eh]
    Translational H         1.481 [kcal/mol]        6.197 [kJ/mol]       0.00236046 [Eh]
    Rotational H            0.592 [kcal/mol]        2.479 [kJ/mol]       0.00094418 [Eh]
    Vibrational H           0.704 [kcal/mol]        2.944 [kJ/mol]       0.00112124 [Eh]
  Correction H              2.777 [kcal/mol]       11.620 [kJ/mol]       0.00442589 [Eh]
  Total H, Enthalpy at  298.15 [K]                                    -796.32831104 [Eh]

  Gibbs free energy, G = H - T * S
    Electronic G           -0.821 [kcal/mol]       -3.437 [kJ/mol]      -0.00130892 [Eh]
    Translational G        -9.963 [kcal/mol]      -41.686 [kJ/mol]      -0.01587754 [Eh]
    Rotational G           -3.680 [kcal/mol]      -15.396 [kJ/mol]      -0.00586396 [Eh]
    Vibrational G           0.308 [kcal/mol]        1.289 [kJ/mol]       0.00049083 [Eh]
  Correction G            -14.156 [kcal/mol]      -59.230 [kJ/mol]      -0.02255959 [Eh]
  Total G, Free enthalpy at  298.15 [K]                               -796.35529652 [Eh]

    Psi4 stopped on: Tuesday, 02 February 2021 12:20PM
    Psi4 wall time for execution: 0:10:18.41

*** Psi4 exiting successfully. Buy a developer a beer!
