
    -----------------------------------------------------------------------
          Psi4: An Open-Source Ab Initio Electronic Structure Package
                               Psi4 1.4a2.dev191 

                         Git: Rev {master} 0ab5346 


    R. M. Parrish, L. A. Burns, D. G. A. Smith, A. C. Simmonett,
    A. E. DePrince III, E. G. Hohenstein, U. Bozkaya, A. Yu. Sokolov,
    R. Di Remigio, R. M. Richard, J. F. Gonthier, A. M. James,
    H. R. McAlexander, A. Kumar, M. Saitow, X. Wang, B. P. Pritchard,
    P. Verma, H. F. Schaefer III, K. Patkowski, R. A. King, E. F. Valeev,
    F. A. Evangelista, J. M. Turney, T. D. Crawford, and C. D. Sherrill,
    J. Chem. Theory Comput. 13(7) pp 3185--3197 (2017).
    (doi: 10.1021/acs.jctc.7b00174)


                         Additional Contributions by
    P. Kraus, H. Kruse, M. H. Lechner, M. C. Schieber, R. A. Shaw,
    A. Alenaizan, R. Galvelis, Z. L. Glick, S. Lehtola, and J. P. Misiewicz

    -----------------------------------------------------------------------


    Psi4 started on: Monday, 01 March 2021 10:34AM

    Process ID: 229466
    Host:       c4-15.compute.lan
    PSIDATADIR: /apps/gb/PSI4/1.4.0/share/psi4
    Memory:     500.0 MiB
    Threads:    1
    
  ==> Input File <==

--------------------------------------------------------------------------
memory 46 GB

basis jerome {
assign pot
assign S aug-cc-pV(T+d)Z

[pot]
spherical
****
 K  0
 S 23 1.00
    2.709796E+07     4.136110E-07
    3.592856E+06     3.860330E-06
    7.222638E+05     2.394640E-05
    1.833976E+05     1.157540E-04
    5.464812E+04     4.697010E-04
    1.830913E+04     1.673720E-03
    6.712501E+03     5.370450E-03
    2.643719E+03     1.572510E-02
    1.103835E+03     4.193360E-02
    4.836777E+02     9.987620E-02
    2.206245E+02     2.019680E-01
    1.041117E+02     3.146270E-01
    5.052749E+01     3.107540E-01
    2.485247E+01     1.421920E-01
    1.128102E+01     1.658490E-02
    5.510166E+00    -2.759760E-04
    2.706914E+00     5.158310E-04
    1.122807E+00    -2.268950E-04
    5.236385E-01     6.652980E-05
    2.355180E-01    -3.685150E-05
    4.157977E-02     1.925250E-05
    2.555456E-02    -2.108420E-05
    1.471495E-02     7.044600E-06
 S 23 1.00
    2.709796E+07    -1.188290E-07
    3.592856E+06    -1.108550E-06
    7.222638E+05    -6.881230E-06
    1.833976E+05    -3.324150E-05
    5.464812E+04    -1.350850E-04
    1.830913E+04    -4.814570E-04
    6.712501E+03    -1.552620E-03
    2.643719E+03    -4.578330E-03
    1.103835E+03    -1.247930E-02
    4.836777E+02    -3.094650E-02
    2.206245E+02    -6.855530E-02
    1.041117E+02    -1.268300E-01
    5.052749E+01    -1.745020E-01
    2.485247E+01    -9.089560E-02
    1.128102E+01     2.506960E-01
    5.510166E+00     5.589630E-01
    2.706914E+00     3.284370E-01
    1.122807E+00     3.392170E-02
    5.236385E-01    -2.100280E-03
    2.355180E-01     1.383960E-03
    4.157977E-02    -5.315630E-04
    2.555456E-02     5.770310E-04
    1.471495E-02    -1.931440E-04
 S 23 1.00
    2.709796E+07     3.917470E-08
    3.592856E+06     3.650640E-07
    7.222638E+05     2.269460E-06
    1.833976E+05     1.094290E-05
    5.464812E+04     4.457360E-05
    1.830913E+04     1.584480E-04
    6.712501E+03     5.128440E-04
    2.643719E+03     1.507690E-03
    1.103835E+03     4.136940E-03
    4.836777E+02     1.024690E-02
    2.206245E+02     2.306520E-02
    1.041117E+02     4.308900E-02
    5.052749E+01     6.238120E-02
    2.485247E+01     3.270420E-02
    1.128102E+01    -1.021980E-01
    5.510166E+00    -3.317970E-01
    2.706914E+00    -3.030100E-01
    1.122807E+00     3.098410E-01
    5.236385E-01     6.732700E-01
    2.355180E-01     2.812200E-01
    4.157977E-02     9.376240E-03
    2.555456E-02    -6.955720E-03
    1.471495E-02     2.069460E-03
 S 23 1.00
    2.709796E+07    -7.564440E-09
    3.592856E+06    -7.055390E-08
    7.222638E+05    -4.380820E-07
    1.833976E+05    -2.115540E-06
    5.464812E+04    -8.601300E-06
    1.830913E+04    -3.064440E-05
    6.712501E+03    -9.892550E-05
    2.643719E+03    -2.917760E-04
    1.103835E+03    -7.977860E-04
    4.836777E+02    -1.985820E-03
    2.206245E+02    -4.449740E-03
    1.041117E+02    -8.390260E-03
    5.052749E+01    -1.206000E-02
    2.485247E+01    -6.568410E-03
    1.128102E+01     2.061430E-02
    5.510166E+00     6.770060E-02
    2.706914E+00     6.639570E-02
    1.122807E+00    -8.237770E-02
    5.236385E-01    -1.727150E-01
    2.355180E-01    -2.310290E-01
    4.157977E-02     5.090040E-01
    2.555456E-02     3.472180E-01
    1.471495E-02     2.809620E-01
 S 1 1.00
    2.555456E-02     1.000000E+00
 S 1 1.00
    1.471495E-02     1.000000E+00
 S 1 1.00
    8.470000E-03     1.000000E+00
 P 16 1.00
    9.533309E+03     4.212010E-05
    1.852081E+03     5.068300E-04
    5.464251E+02     3.311700E-03
    1.966947E+02     1.536840E-02
    7.964112E+01     5.457060E-02
    3.488324E+01     1.473880E-01
    1.604479E+01     2.879240E-01
    7.575632E+00     3.750810E-01
    3.672548E+00     2.545160E-01
    1.771130E+00     6.059280E-02
    8.515199E-01     2.508370E-03
    4.016017E-01     6.688870E-04
    1.851933E-01    -1.486150E-04
    5.523390E-02     4.936010E-05
    2.431085E-02    -3.513850E-05
    1.080339E-02     1.171450E-05
 P 16 1.00
    9.533309E+03    -1.280760E-05
    1.852081E+03    -1.547870E-04
    5.464251E+02    -1.010940E-03
    1.966947E+02    -4.738330E-03
    7.964112E+01    -1.703260E-02
    3.488324E+01    -4.754130E-02
    1.604479E+01    -9.560810E-02
    7.575632E+00    -1.337000E-01
    3.672548E+00    -7.425060E-02
    1.771130E+00     1.646810E-01
    8.515199E-01     4.057630E-01
    4.016017E-01     4.113600E-01
    1.851933E-01     1.734240E-01
    5.523390E-02     1.253640E-02
    2.431085E-02    -3.267140E-03
    1.080339E-02     1.039680E-03
 P 16 1.00
    9.533309E+03     1.764010E-06
    1.852081E+03     2.124880E-05
    5.464251E+02     1.392500E-04
    1.966947E+02     6.509140E-04
    7.964112E+01     2.349940E-03
    3.488324E+01     6.547470E-03
    1.604479E+01     1.326270E-02
    7.575632E+00     1.848520E-02
    3.672548E+00     1.025530E-02
    1.771130E+00    -2.652150E-02
    8.515199E-01    -6.086460E-02
    4.016017E-01    -7.474220E-02
    1.851933E-01    -4.870880E-02
    5.523390E-02     2.245720E-01
    2.431085E-02     5.839280E-01
    1.080339E-02     2.980960E-01
 P 1 1.00
    5.523390E-02     1.000000E+00
 P 1 1.00
    1.080339E-02     1.000000E+00
 P 1 1.00
    4.800000E-03     1.000000E+00
 D 6 1.00
    5.670903E+00     8.285900E-03
    1.459042E+00     2.332530E-02
    5.431827E-01     4.878080E-02
    1.346875E-01     7.349020E-02
    5.516013E-02     2.387630E-01
    1.501876E-02     8.253200E-01
 D 1 1.00
    5.516013E-02     1.000000E+00
 D 1 1.00
    1.501876E-02     1.000000E+00
 D 1 1.00
    6.010000E-03     1.000000E+00
 F 1 1.00
    8.493750E-02     1.000000E+00
 F 1 1.00
    3.398000E-02     1.000000E+00
 ****
}

molecule  {
0 2
S 0.000 0.000 0.000
S 2.000 0.000 0.000
K -2.80 0.000 0.000
}

set {
basis jerome
reference uks
g_convergence gau_verytight
dft_spherical_points 590
dft_radial_points 99
geom_maxiter 100
}

optimize('wb97m-v')
frequencies('wb97m-v')

--------------------------------------------------------------------------

  Memory set to  42.841 GiB by Python driver.
gradient() will perform gradient computation by finite difference of analytic energies.

         ----------------------------------------------------------
                                   FINDIF
                     R. A. King and Jonathon Misiewicz
         ---------------------------------------------------------

  Using finite-differences of energies to determine gradients.
    Generating geometries for use with 3-point formula.
    Displacement size will be 5.00e-03.
    Number of atoms is 3.
    Number of symmetric SALCs is 2.
    Translations projected? 1. Rotations projected? 1.
    Number of geometries (including reference) is 5.

  //>>>>>>>>>>>>>>>>>>>>>>>>>>>>>>>>>>>//
  //    Loading displacement 1 of 5    //
  //<<<<<<<<<<<<<<<<<<<<<<<<<<<<<<<<<<<//

*** tstart() called on c4-15.compute.lan
*** at Mon Mar  1 10:34:41 2021

   => Loading Basis Set <=

    Name: JEROME
    Role: ORBITAL
    Keyword: BASIS
    atoms 1-2 entry S          line   944 file /apps/gb/PSI4/1.4.0/share/psi4/basis/aug-cc-pv_tpd_z.gbs 
    atoms 3   entry K          line     5 inputblock pot 


         ---------------------------------------------------------
                                   SCF
               by Justin Turney, Rob Parrish, Andy Simmonett
                          and Daniel G. A. Smith
                              UKS Reference
                        1 Threads,  43869 MiB Core
         ---------------------------------------------------------

  ==> Geometry <==

    Molecular point group: c2v
    Full point group: C_inf_v

    Geometry (in Angstrom), charge = 0, multiplicity = 2:

       Center              X                  Y                   Z               Mass       
    ------------   -----------------  -----------------  -----------------  -----------------
         S            0.000000000000     0.000000000000     0.438783205793    31.972071174400
         S            0.000000000000     0.000000000000     2.438783205793    31.972071174400
         K            0.000000000000     0.000000000000    -2.361216794207    38.963706486400

  Running in c2v symmetry.

  Rotational constants: A = ************  B =      0.04076  C =      0.04076 [cm^-1]
  Rotational constants: A = ************  B =   1222.04813  C =   1222.04813 [MHz]
  Nuclear repulsion =  158.702765371412369

  Charge       = 0
  Multiplicity = 2
  Electrons    = 51
  Nalpha       = 26
  Nbeta        = 25

  ==> Algorithm <==

  SCF Algorithm Type is DF.
  DIIS enabled.
  MOM disabled.
  Fractional occupation disabled.
  Guess Type is SAD.
  Energy threshold   = 1.00e-08
  Density threshold  = 1.00e-08
  Integral threshold = 0.00e+00

  ==> Primary Basis <==

  Basis Set: JEROME
    Blend: AUG-CC-PV(T+D)Z + POT
    Number of shells: 53
    Number of basis function: 169
    Number of Cartesian functions: 199
    Spherical Harmonics?: true
    Max angular momentum: 3

  ==> DFT Potential <==

   => Composite Functional: WB97M-V <= 

    wB97M-V Hyb-GGA Exchange-Correlation Functional

    N. Mardirossian and M. Head-Gordon, J. Chem. Phys. 144, 214110 (2016)

    Deriv               =              1
    GGA                 =           TRUE
    Meta                =           TRUE

    Exchange Hybrid     =           TRUE
    MP2 Hybrid          =          FALSE

   => Exchange-Correlation Functionals <=

    1.0000   wB97M-V exchange-correlation functional

   => Exact (HF) Exchange <=

    0.8500            HF,LR [omega = 0.3000]
    0.1500               HF 

   => VV10 Non-Local Parameters <=

    VV10 B              =     6.0000E+00
    VV10 C              =     1.0000E-02

   => Molecular Quadrature <=

    Radial Scheme          =       TREUTLER
    Pruning Scheme         =           NONE
    Nuclear Scheme         =       TREUTLER

    BS radius alpha        =              1
    Pruning alpha          =              1
    Radial Points          =             99
    Spherical Points       =            590
    Total Points           =         171775
    Total Blocks           =           1533
    Max Points             =            256
    Max Functions          =            169
    Weights Tolerance      =       1.00E-15

   => Loading Basis Set <=

    Name: (JEROME AUX)
    Role: JKFIT
    Keyword: DF_BASIS_SCF
    atoms 1-2 entry S          line   730 file /apps/gb/PSI4/1.4.0/share/psi4/basis/aug-cc-pvtz-jkfit.gbs 
    atoms 3   entry K          line  1157 file /apps/gb/PSI4/1.4.0/share/psi4/basis/def2-qzvpp-jkfit.gbs 

  ==> Pre-Iterations <==

   -------------------------------------------------------
    Irrep   Nso     Nmo     Nalpha   Nbeta   Ndocc  Nsocc
   -------------------------------------------------------
     A1        71      71       0       0       0       0
     A2        18      18       0       0       0       0
     B1        40      40       0       0       0       0
     B2        40      40       0       0       0       0
   -------------------------------------------------------
    Total     169     169      26      25      25       1
   -------------------------------------------------------

  ==> Integral Setup <==

  ==> DiskDFJK: Density-Fitted J/K Matrices <==

    J tasked:                  Yes
    K tasked:                  Yes
    wK tasked:                 Yes
    Omega:               3.000E-01
    OpenMP threads:              1
    Integrals threads:           1
    Memory [MiB]:            31077
    Algorithm:                Core
    Integral Cache:           NONE
    Schwarz Cutoff:          1E-12
    Fitting Condition:       1E-10

   => Auxiliary Basis Set <=

  Basis Set: (JEROME AUX)
    Blend: AUG-CC-PVTZ-JKFIT + DEF2-QZVPP-JKFIT
    Number of shells: 128
    Number of basis function: 452
    Number of Cartesian functions: 563
    Spherical Harmonics?: true
    Max angular momentum: 4

  Cached 100.0% of DFT collocation blocks in 1.781 [GiB].

  Minimum eigenvalue in the overlap matrix is 1.8268450400E-04.
  Using Symmetric Orthogonalization.

  SCF Guess: Superposition of Atomic Densities via on-the-fly atomic UHF.

  ==> Iterations <==

                           Total Energy        Delta E     RMS |[F,P]|

   @DF-UKS iter SAD: -1395.72250078005254   -1.39572e+03   0.00000e+00 
   @DF-UKS iter   1: -1396.23288113893091   -5.10380e-01   4.18899e-03 DIIS
   @DF-UKS iter   2: -1396.28625470262705   -5.33736e-02   2.67772e-03 DIIS
   @DF-UKS iter   3: -1396.31226744893229   -2.60127e-02   5.64129e-04 DIIS
   @DF-UKS iter   4: -1396.31359240130632   -1.32495e-03   1.20470e-04 DIIS
   @DF-UKS iter   5: -1396.31371569284147   -1.23292e-04   5.85267e-05 DIIS
   @DF-UKS iter   6: -1396.31373672374821   -2.10309e-05   1.31642e-05 DIIS
   @DF-UKS iter   7: -1396.31374066842045   -3.94467e-06   5.44896e-06 DIIS
   @DF-UKS iter   8: -1396.31374170447407   -1.03605e-06   3.04288e-06 DIIS
   @DF-UKS iter   9: -1396.31374210226727   -3.97793e-07   1.56438e-06 DIIS
   @DF-UKS iter  10: -1396.31374221884539   -1.16578e-07   3.85936e-07 DIIS
   @DF-UKS iter  11: -1396.31374222402155   -5.17616e-09   8.74168e-08 DIIS
   @DF-UKS iter  12: -1396.31374222423301   -2.11458e-10   2.25612e-08 DIIS
   @DF-UKS iter  13: -1396.31374222424665   -1.36424e-11   5.96164e-09 DIIS
  Energy and wave function converged.


  ==> Post-Iterations <==

   @Spin Contamination Metric:   4.789390063E-03
   @S^2 Expected:                7.500000000E-01
   @S^2 Observed:                7.547893901E-01
   @S   Expected:                5.000000000E-01
   @S   Observed:                5.000000000E-01

    Orbital Energies [Eh]
    ---------------------

    Alpha Occupied:                                                       

       1A1  -130.211333     2A1   -89.147321     3A1   -89.142909  
       4A1   -13.454002     1B1   -10.731706     1B2   -10.731550  
       5A1   -10.731206     6A1    -8.057752     7A1    -8.055146  
       2B1    -5.970657     8A1    -5.967621     3B1    -5.964859  
       9A1    -5.964556     2B2    -5.958460     3B2    -5.958014  
      10A1    -1.551139    11A1    -0.900290     4B1    -0.899544  
       4B2    -0.898727    12A1    -0.824869    13A1    -0.644778  
      14A1    -0.390717     5B1    -0.368233     5B2    -0.350762  
       6B1    -0.246777     6B2    -0.227689  

    Alpha Virtual:                                                        

      15A1    -0.043043     7B2    -0.004334     7B1    -0.004334  
      16A1     0.002563    17A1     0.011442     8B1     0.014361  
       8B2     0.014470     1A2     0.017171    18A1     0.017202  
      19A1     0.021682     9B1     0.022320     9B2     0.022552  
      20A1     0.026017     2A2     0.039726    21A1     0.039846  
      10B1     0.049124    10B2     0.049646    22A1     0.051927  
      11B1     0.057870    11B2     0.058201    23A1     0.062758  
      24A1     0.074028    25A1     0.086102    12B1     0.102567  
      12B2     0.103626    13B2     0.108018    13B1     0.108047  
       3A2     0.110066    26A1     0.110174     4A2     0.116322  
      27A1     0.116367    28A1     0.119545    14B1     0.131642  
      14B2     0.134089    29A1     0.136766    30A1     0.144860  
      15B1     0.159271    15B2     0.161411    16B1     0.186979  
      31A1     0.188426    16B2     0.189384    17B1     0.193515  
      17B2     0.194434    32A1     0.235794    33A1     0.269117  
       5A2     0.273650    34A1     0.274861    35A1     0.277785  
       6A2     0.285619    36A1     0.285789    18B1     0.306190  
      18B2     0.308491     7A2     0.327691    37A1     0.327821  
      19B1     0.329621    38A1     0.330124    19B2     0.334383  
      20B1     0.340927    20B2     0.340935    39A1     0.387465  
      40A1     0.393159     8A2     0.408763    41A1     0.408944  
      21B1     0.409103    21B2     0.413715    22B1     0.470023  
      42A1     0.475348    22B2     0.477066    23B1     0.573000  
      23B2     0.584017    43A1     0.627862    24B1     0.658527  
      44A1     0.662330     9A2     0.663943    24B2     0.667804  
      45A1     0.681063    46A1     0.740086    10A2     0.740156  
      25B1     0.742858    25B2     0.755189    47A1     0.755516  
      26B2     0.784236    26B1     0.784238    27B1     0.813987  
      27B2     0.823379    48A1     0.858040    11A2     0.873478  
      49A1     0.873724    28B2     0.922889    28B1     0.922895  
      50A1     0.933332    51A1     1.043970    29B1     1.079553  
      29B2     1.091488    52A1     1.109334    12A2     1.109925  
      53A1     1.161605    30B1     1.242690    30B2     1.254852  
      54A1     1.370668    55A1     1.537637    13A2     1.768908  
      56A1     1.768928    57A1     1.852574    14A2     1.852988  
      31B1     1.904425    58A1     1.904791    31B2     1.922130  
      32B1     1.993080    32B2     2.015942    33B1     2.091499  
      59A1     2.104394    33B2     2.107102    15A2     2.165559  
      60A1     2.166046    34B1     2.185295    34B2     2.185427  
      35B1     2.223668    36B1     2.244331    35B2     2.244399  
      36B2     2.247979    61A1     2.258657    37B1     2.367004  
      62A1     2.376350    16A2     2.377109    37B2     2.387540  
      63A1     2.517524    64A1     2.604468    38B1     2.676896  
      38B2     2.696552    65A1     3.765686    66A1     4.729801  
      67A1     5.473406    68A1     6.970287    17A2     6.970319  
      18A2     7.008261    69A1     7.008269    39B1     7.052289  
      39B2     7.065104    40B1     7.112473    40B2     7.122690  
      70A1     7.181005    71A1     7.236709  

    Beta Occupied:                                                        

       1A1  -130.211320     2A1   -89.143632     3A1   -89.140904  
       4A1   -13.453985     1B1   -10.731629     1B2   -10.731549  
       5A1   -10.731199     6A1    -8.054072     7A1    -8.053096  
       8A1    -5.965203     9A1    -5.963385     2B1    -5.957523  
       3B1    -5.957453     2B2    -5.956556     3B2    -5.955844  
      10A1    -1.551027    11A1    -0.899772     4B1    -0.899233  
       4B2    -0.898719    12A1    -0.811935    13A1    -0.618808  
      14A1    -0.379000     5B2    -0.343858     5B1    -0.320257  
       6B2    -0.218042  

    Beta Virtual:                                                         

      15A1    -0.043342     6B1    -0.007538     7B2    -0.004248  
      16A1     0.002350     7B1     0.003211    17A1     0.011340  
       8B2     0.014502     8B1     0.014968    18A1     0.017108  
       1A2     0.017120    19A1     0.021336     9B1     0.022204  
       9B2     0.022588    20A1     0.025872    21A1     0.039419  
       2A2     0.039471    10B1     0.049358    10B2     0.049779  
      22A1     0.051882    11B1     0.057797    11B2     0.058263  
      23A1     0.062802    24A1     0.073349    25A1     0.086267  
      12B2     0.103934    12B1     0.104541    13B1     0.107414  
      13B2     0.107429    26A1     0.109954     3A2     0.109962  
      27A1     0.115063     4A2     0.115539    28A1     0.119527  
      14B1     0.130056    14B2     0.134354    29A1     0.139696  
      30A1     0.149275    15B1     0.161514    15B2     0.161892  
      16B1     0.188943    31A1     0.188994    16B2     0.189926  
      17B2     0.194517    17B1     0.194792    32A1     0.236596  
      33A1     0.270742    34A1     0.275163     5A2     0.277338  
      35A1     0.279027     6A2     0.286326    36A1     0.286353  
      18B1     0.306383    18B2     0.308757    37A1     0.327684  
       7A2     0.328721    38A1     0.330217    19B2     0.335374  
      19B1     0.336337    20B1     0.339492    20B2     0.339517  
      39A1     0.390064    40A1     0.392731    41A1     0.410773  
       8A2     0.411368    21B1     0.414967    21B2     0.415147  
      42A1     0.476274    22B1     0.478100    22B2     0.479130  
      23B1     0.580723    23B2     0.586139    43A1     0.632235  
      24B1     0.663901    24B2     0.668983    44A1     0.674794  
       9A2     0.676346    45A1     0.682474    10A2     0.752950  
      46A1     0.753102    25B1     0.756378    25B2     0.759459  
      47A1     0.761685    26B1     0.787372    26B2     0.787631  
      27B1     0.824006    27B2     0.826395    48A1     0.864245  
      11A2     0.879934    49A1     0.880241    28B1     0.927177  
      28B2     0.927625    50A1     0.939497    51A1     1.047597  
      29B1     1.087650    29B2     1.092666    52A1     1.114016  
      12A2     1.114837    53A1     1.163677    30B1     1.253470  
      30B2     1.256516    54A1     1.385363    55A1     1.553783  
      13A2     1.793910    56A1     1.794346    14A2     1.874856  
      57A1     1.875374    58A1     1.910205    31B2     1.923959  
      31B1     1.924613    32B2     2.023021    32B1     2.028335  
      33B1     2.108411    33B2     2.110282    59A1     2.110731  
      60A1     2.180199    15A2     2.180958    34B2     2.209455  
      34B1     2.210199    35B2     2.258136    35B1     2.266853  
      61A1     2.267494    36B2     2.269469    36B1     2.270412  
      62A1     2.393019    37B2     2.393030    16A2     2.393880  
      37B1     2.395174    63A1     2.527094    64A1     2.611930  
      38B2     2.700979    38B1     2.702508    65A1     3.770850  
      66A1     4.742204    67A1     5.483982    68A1     6.977588  
      17A2     6.977797    69A1     7.014543    18A2     7.014702  
      39B1     7.059690    39B2     7.065521    40B1     7.118533  
      40B2     7.122900    70A1     7.184104    71A1     7.239098  

    Final Occupation by Irrep:
             A1    A2    B1    B2 
    DOCC [    14,    0,    5,    6 ]
    SOCC [     0,    0,    1,    0 ]

  @DF-UKS Final Energy: -1396.31374222424665

   => Energetics <=

    Nuclear Repulsion Energy =            158.7027653714123687
    One-Electron Energy =               -2242.6805807089922382
    Two-Electron Energy =                 753.1085587722831178
    DFT Exchange-Correlation Energy =     -65.6572044742884060
    Empirical Dispersion Energy =           0.0000000000000000
    VV10 Nonlocal Energy =                  0.2127188153387500
    Total Energy =                      -1396.3137422242464254

  UHF NO Occupations:
  HONO-2 :   14 A1 1.9997000
  HONO-1 :    5 B1 1.9982257
  HONO-0 :    6 B1 1.0000000
  LUNO+0 :    7 B1 0.0017743
  LUNO+1 :   15 A1 0.0003000
  LUNO+2 :    7 B2 0.0001321
  LUNO+3 :   16 A1 0.0001149


Computation Completed


Properties will be evaluated at   0.000000,   0.000000,   0.000000 [a0]

Properties computed using the SCF density matrix

  Nuclear Dipole Moment: [e a0]
     X:     0.0000      Y:     0.0000      Z:     2.2260

  Electronic Dipole Moment: [e a0]
     X:     0.0000      Y:     0.0000      Z:    -7.5071

  Dipole Moment: [e a0]
     X:     0.0000      Y:     0.0000      Z:    -5.2811     Total:     5.2811

  Dipole Moment: [D]
     X:     0.0000      Y:     0.0000      Z:   -13.4232     Total:    13.4232


*** tstop() called on c4-15.compute.lan at Mon Mar  1 10:35:53 2021
Module time:
	user time   =      69.41 seconds =       1.16 minutes
	system time =       1.53 seconds =       0.03 minutes
	total time  =         72 seconds =       1.20 minutes
Total time:
	user time   =      69.41 seconds =       1.16 minutes
	system time =       1.53 seconds =       0.03 minutes
	total time  =         72 seconds =       1.20 minutes

  //>>>>>>>>>>>>>>>>>>>>>>>>>>>>>>>>>>>//
  //    Loading displacement 2 of 5    //
  //<<<<<<<<<<<<<<<<<<<<<<<<<<<<<<<<<<<//

*** tstart() called on c4-15.compute.lan
*** at Mon Mar  1 10:35:53 2021

   => Loading Basis Set <=

    Name: JEROME
    Role: ORBITAL
    Keyword: BASIS
    atoms 1-2 entry S          line   944 file /apps/gb/PSI4/1.4.0/share/psi4/basis/aug-cc-pv_tpd_z.gbs 
    atoms 3   entry K          line     5 inputblock pot 


         ---------------------------------------------------------
                                   SCF
               by Justin Turney, Rob Parrish, Andy Simmonett
                          and Daniel G. A. Smith
                              UKS Reference
                        1 Threads,  43869 MiB Core
         ---------------------------------------------------------

  ==> Geometry <==

    Molecular point group: c2v
    Full point group: C_inf_v

    Geometry (in Angstrom), charge = 0, multiplicity = 2:

       Center              X                  Y                   Z               Mass       
    ------------   -----------------  -----------------  -----------------  -----------------
         S            0.000000000000     0.000000000000     0.438394702979    31.972071174400
         S            0.000000000000     0.000000000000     2.438958311219    31.972071174400
         K            0.000000000000     0.000000000000    -2.361041688781    38.963706486400

  Running in c2v symmetry.

  Rotational constants: A = ************  B =      0.04076  C =      0.04076 [cm^-1]
  Rotational constants: A = ************  B =   1222.09484  C =   1222.09484 [MHz]
  Nuclear repulsion =  158.695249907576908

  Charge       = 0
  Multiplicity = 2
  Electrons    = 51
  Nalpha       = 26
  Nbeta        = 25

  ==> Algorithm <==

  SCF Algorithm Type is DF.
  DIIS enabled.
  MOM disabled.
  Fractional occupation disabled.
  Guess Type is SAD.
  Energy threshold   = 1.00e-08
  Density threshold  = 1.00e-08
  Integral threshold = 0.00e+00

  ==> Primary Basis <==

  Basis Set: JEROME
    Blend: AUG-CC-PV(T+D)Z + POT
    Number of shells: 53
    Number of basis function: 169
    Number of Cartesian functions: 199
    Spherical Harmonics?: true
    Max angular momentum: 3

  ==> DFT Potential <==

   => Composite Functional: WB97M-V <= 

    wB97M-V Hyb-GGA Exchange-Correlation Functional

    N. Mardirossian and M. Head-Gordon, J. Chem. Phys. 144, 214110 (2016)

    Deriv               =              1
    GGA                 =           TRUE
    Meta                =           TRUE

    Exchange Hybrid     =           TRUE
    MP2 Hybrid          =          FALSE

   => Exchange-Correlation Functionals <=

    1.0000   wB97M-V exchange-correlation functional

   => Exact (HF) Exchange <=

    0.8500            HF,LR [omega = 0.3000]
    0.1500               HF 

   => VV10 Non-Local Parameters <=

    VV10 B              =     6.0000E+00
    VV10 C              =     1.0000E-02

   => Molecular Quadrature <=

    Radial Scheme          =       TREUTLER
    Pruning Scheme         =           NONE
    Nuclear Scheme         =       TREUTLER

    BS radius alpha        =              1
    Pruning alpha          =              1
    Radial Points          =             99
    Spherical Points       =            590
    Total Points           =         171774
    Total Blocks           =           1532
    Max Points             =            256
    Max Functions          =            169
    Weights Tolerance      =       1.00E-15

   => Loading Basis Set <=

    Name: (JEROME AUX)
    Role: JKFIT
    Keyword: DF_BASIS_SCF
    atoms 1-2 entry S          line   730 file /apps/gb/PSI4/1.4.0/share/psi4/basis/aug-cc-pvtz-jkfit.gbs 
    atoms 3   entry K          line  1157 file /apps/gb/PSI4/1.4.0/share/psi4/basis/def2-qzvpp-jkfit.gbs 

  ==> Pre-Iterations <==

   -------------------------------------------------------
    Irrep   Nso     Nmo     Nalpha   Nbeta   Ndocc  Nsocc
   -------------------------------------------------------
     A1        71      71       0       0       0       0
     A2        18      18       0       0       0       0
     B1        40      40       0       0       0       0
     B2        40      40       0       0       0       0
   -------------------------------------------------------
    Total     169     169      26      25      25       1
   -------------------------------------------------------

  ==> Integral Setup <==

  ==> DiskDFJK: Density-Fitted J/K Matrices <==

    J tasked:                  Yes
    K tasked:                  Yes
    wK tasked:                 Yes
    Omega:               3.000E-01
    OpenMP threads:              1
    Integrals threads:           1
    Memory [MiB]:            31077
    Algorithm:                Core
    Integral Cache:           NONE
    Schwarz Cutoff:          1E-12
    Fitting Condition:       1E-10

   => Auxiliary Basis Set <=

  Basis Set: (JEROME AUX)
    Blend: AUG-CC-PVTZ-JKFIT + DEF2-QZVPP-JKFIT
    Number of shells: 128
    Number of basis function: 452
    Number of Cartesian functions: 563
    Spherical Harmonics?: true
    Max angular momentum: 4

  Cached 100.0% of DFT collocation blocks in 1.781 [GiB].

  Minimum eigenvalue in the overlap matrix is 1.8289946173E-04.
  Using Symmetric Orthogonalization.

  SCF Guess: Superposition of Atomic Densities via on-the-fly atomic UHF.

  ==> Iterations <==

                           Total Energy        Delta E     RMS |[F,P]|

   @DF-UKS iter SAD: -1395.72397345863942   -1.39572e+03   0.00000e+00 
   @DF-UKS iter   1: -1396.23272677488580   -5.08753e-01   4.19441e-03 DIIS
   @DF-UKS iter   2: -1396.28566365943152   -5.29369e-02   2.69890e-03 DIIS
   @DF-UKS iter   3: -1396.31222829421677   -2.65646e-02   5.71130e-04 DIIS
   @DF-UKS iter   4: -1396.31358850242577   -1.36021e-03   1.20266e-04 DIIS
   @DF-UKS iter   5: -1396.31371116776245   -1.22665e-04   5.81990e-05 DIIS
   @DF-UKS iter   6: -1396.31373183575579   -2.06680e-05   1.29817e-05 DIIS
   @DF-UKS iter   7: -1396.31373557498773   -3.73923e-06   5.21102e-06 DIIS
   @DF-UKS iter   8: -1396.31373650953446   -9.34547e-07   2.91730e-06 DIIS
   @DF-UKS iter   9: -1396.31373686890402   -3.59370e-07   1.53339e-06 DIIS
   @DF-UKS iter  10: -1396.31373698209791   -1.13194e-07   3.87407e-07 DIIS
   @DF-UKS iter  11: -1396.31373698741663   -5.31873e-09   8.89825e-08 DIIS
   @DF-UKS iter  12: -1396.31373698763969   -2.23054e-10   2.27128e-08 DIIS
   @DF-UKS iter  13: -1396.31373698765310   -1.34150e-11   6.02502e-09 DIIS
  Energy and wave function converged.


  ==> Post-Iterations <==

   @Spin Contamination Metric:   4.790603205E-03
   @S^2 Expected:                7.500000000E-01
   @S^2 Observed:                7.547906032E-01
   @S   Expected:                5.000000000E-01
   @S   Observed:                5.000000000E-01

    Orbital Energies [Eh]
    ---------------------

    Alpha Occupied:                                                       

       1A1  -130.211299     2A1   -89.147393     3A1   -89.142933  
       4A1   -13.453968     1B2   -10.731672     1B1   -10.731517  
       5A1   -10.731172     6A1    -8.057812     7A1    -8.055163  
       2B2    -5.970720     8A1    -5.967683     3B2    -5.964874  
       9A1    -5.964576     2B1    -5.958519     3B1    -5.958031  
      10A1    -1.551111    11A1    -0.900272     4B2    -0.899516  
       4B1    -0.898699    12A1    -0.824762    13A1    -0.644850  
      14A1    -0.390692     5B2    -0.368193     5B1    -0.350721  
       6B2    -0.246850     6B1    -0.227762  

    Alpha Virtual:                                                        

      15A1    -0.043031     7B1    -0.004327     7B2    -0.004325  
      16A1     0.002568    17A1     0.011446     8B2     0.014365  
       8B1     0.014474     1A2     0.017173    18A1     0.017205  
      19A1     0.021683     9B2     0.022320     9B1     0.022553  
      20A1     0.026016     2A2     0.039733    21A1     0.039854  
      10B2     0.049128    10B1     0.049650    22A1     0.051932  
      11B2     0.057875    11B1     0.058206    23A1     0.062752  
      24A1     0.074028    25A1     0.086080    12B2     0.102571  
      12B1     0.103630    13B1     0.108029    13B2     0.108055  
       3A2     0.110074    26A1     0.110183     4A2     0.116332  
      27A1     0.116379    28A1     0.119551    14B2     0.131650  
      14B1     0.134098    29A1     0.136716    30A1     0.144810  
      15B2     0.159276    15B1     0.161417    16B2     0.186975  
      31A1     0.188417    16B1     0.189383    17B2     0.193527  
      17B1     0.194442    32A1     0.235791    33A1     0.269085  
       5A2     0.273656    34A1     0.274862    35A1     0.277801  
       6A2     0.285635    36A1     0.285805    18B2     0.306197  
      18B1     0.308499     7A2     0.327686    37A1     0.327817  
      19B2     0.329631    38A1     0.330152    19B1     0.334394  
      20B2     0.340941    20B1     0.340950    39A1     0.387481  
      40A1     0.393129     8A2     0.408759    41A1     0.408940  
      21B2     0.409084    21B1     0.413696    22B2     0.470026  
      42A1     0.475326    22B1     0.477068    23B2     0.573017  
      23B1     0.584033    43A1     0.627881    24B2     0.658525  
      44A1     0.662351     9A2     0.663962    24B1     0.667803  
      45A1     0.681109    46A1     0.740062    10A2     0.740133  
      25B2     0.742810    25B1     0.755148    47A1     0.755429  
      26B1     0.784243    26B2     0.784245    27B2     0.813937  
      27B1     0.823323    48A1     0.858070    11A2     0.873404  
      49A1     0.873651    28B1     0.922834    28B2     0.922840  
      50A1     0.933319    51A1     1.043920    29B2     1.079453  
      29B1     1.091388    52A1     1.109242    12A2     1.109835  
      53A1     1.161429    30B2     1.242624    30B1     1.254783  
      54A1     1.370507    55A1     1.537616    13A2     1.768873  
      56A1     1.768893    57A1     1.852527    14A2     1.852938  
      31B2     1.904304    58A1     1.904963    31B1     1.922014  
      32B2     1.993127    32B1     2.015989    33B2     2.091541  
      59A1     2.104497    33B1     2.107142    15A2     2.165718  
      60A1     2.166202    34B2     2.185305    34B1     2.185437  
      35B2     2.223666    36B2     2.244280    35B1     2.244348  
      36B1     2.247977    61A1     2.258633    37B2     2.366710  
      62A1     2.376146    16A2     2.376905    37B1     2.387247  
      63A1     2.517259    64A1     2.603660    38B2     2.676475  
      38B1     2.696128    65A1     3.765341    66A1     4.729133  
      67A1     5.473248    68A1     6.970243    17A2     6.970275  
      18A2     7.008226    69A1     7.008234    39B2     7.052239  
      39B1     7.065062    40B2     7.112361    40B1     7.122571  
      70A1     7.181178    71A1     7.236107  

    Beta Occupied:                                                        

       1A1  -130.211285     2A1   -89.143703     3A1   -89.140929  
       4A1   -13.453951     1B2   -10.731595     1B1   -10.731515  
       5A1   -10.731165     6A1    -8.054131     7A1    -8.053115  
       8A1    -5.965263     9A1    -5.963406     2B2    -5.957582  
       3B2    -5.957472     2B1    -5.956574     3B1    -5.955903  
      10A1    -1.550999    11A1    -0.899754     4B2    -0.899205  
       4B1    -0.898691    12A1    -0.811821    13A1    -0.618881  
      14A1    -0.378978     5B1    -0.343817     5B2    -0.320203  
       6B1    -0.218116  

    Beta Virtual:                                                         

      15A1    -0.043330     6B2    -0.007544     7B1    -0.004241  
      16A1     0.002354     7B2     0.003167    17A1     0.011344  
       8B1     0.014506     8B2     0.014967    18A1     0.017110  
       1A2     0.017122    19A1     0.021340     9B2     0.022205  
       9B1     0.022589    20A1     0.025870    21A1     0.039425  
       2A2     0.039477    10B2     0.049361    10B1     0.049783  
      22A1     0.051886    11B2     0.057803    11B1     0.058270  
      23A1     0.062798    24A1     0.073350    25A1     0.086247  
      12B1     0.103939    12B2     0.104545    13B2     0.107422  
      13B1     0.107437    26A1     0.109962     3A2     0.109970  
      27A1     0.115074     4A2     0.115549    28A1     0.119532  
      14B2     0.130067    14B1     0.134365    29A1     0.139681  
      30A1     0.149192    15B2     0.161519    15B1     0.161898  
      16B2     0.188947    31A1     0.188984    16B1     0.189928  
      17B1     0.194524    17B2     0.194800    32A1     0.236595  
      33A1     0.270700    34A1     0.275180     5A2     0.277349  
      35A1     0.279038     6A2     0.286339    36A1     0.286366  
      18B2     0.306390    18B1     0.308765    37A1     0.327684  
       7A2     0.328719    38A1     0.330245    19B1     0.335386  
      19B2     0.336348    20B2     0.339507    20B1     0.339532  
      39A1     0.390081    40A1     0.392702    41A1     0.410768  
       8A2     0.411363    21B2     0.414948    21B1     0.415128  
      42A1     0.476251    22B2     0.478101    22B1     0.479132  
      23B2     0.580739    23B1     0.586155    43A1     0.632256  
      24B2     0.663899    24B1     0.668982    44A1     0.674829  
       9A2     0.676375    45A1     0.682516    10A2     0.752920  
      46A1     0.753071    25B2     0.756345    25B1     0.759424  
      47A1     0.761598    26B2     0.787378    26B1     0.787636  
      27B2     0.823945    27B1     0.826335    48A1     0.864271  
      11A2     0.879858    49A1     0.880166    28B2     0.927120  
      28B1     0.927568    50A1     0.939499    51A1     1.047539  
      29B2     1.087549    29B1     1.092565    52A1     1.113922  
      12A2     1.114744    53A1     1.163496    30B2     1.253400  
      30B1     1.256447    54A1     1.385195    55A1     1.553765  
      13A2     1.793881    56A1     1.794317    14A2     1.874802  
      57A1     1.875320    58A1     1.910376    31B1     1.923845  
      31B2     1.924508    32B1     2.023066    32B2     2.028373  
      33B2     2.108448    33B1     2.110322    59A1     2.110833  
      60A1     2.180364    15A2     2.181122    34B1     2.209469  
      34B2     2.210214    35B1     2.258133    35B2     2.266849  
      61A1     2.267471    36B1     2.269418    36B2     2.270362  
      37B1     2.392740    62A1     2.392812    16A2     2.393671  
      37B2     2.394888    63A1     2.526826    64A1     2.611121  
      38B1     2.700555    38B2     2.702082    65A1     3.770502  
      66A1     4.741536    67A1     5.483825    68A1     6.977547  
      17A2     6.977756    69A1     7.014506    18A2     7.014665  
      39B2     7.059646    39B1     7.065480    40B2     7.118416  
      40B1     7.122781    70A1     7.184280    71A1     7.238492  

    Final Occupation by Irrep:
             A1    A2    B1    B2 
    DOCC [    14,    0,    6,    5 ]
    SOCC [     0,    0,    0,    1 ]

  @DF-UKS Final Energy: -1396.31373698765310

   => Energetics <=

    Nuclear Repulsion Energy =            158.6952499075769083
    One-Electron Energy =               -2242.6654190975245911
    Two-Electron Energy =                 753.1007859130395445
    DFT Exchange-Correlation Energy =     -65.6570725494033098
    Empirical Dispersion Energy =           0.0000000000000000
    VV10 Nonlocal Energy =                  0.2127188386584923
    Total Energy =                      -1396.3137369876528737

  UHF NO Occupations:
  HONO-2 :   14 A1 1.9996999
  HONO-1 :    5 B2 1.9982252
  HONO-0 :    6 B2 1.0000000
  LUNO+0 :    7 B2 0.0017748
  LUNO+1 :   15 A1 0.0003001
  LUNO+2 :    7 B1 0.0001320
  LUNO+3 :   16 A1 0.0001149


Computation Completed


Properties will be evaluated at   0.000000,   0.000000,   0.000000 [a0]

Properties computed using the SCF density matrix

  Nuclear Dipole Moment: [e a0]
     X:     0.0000      Y:     0.0000      Z:     2.2258

  Electronic Dipole Moment: [e a0]
     X:     0.0000      Y:     0.0000      Z:    -7.5058

  Dipole Moment: [e a0]
     X:     0.0000      Y:     0.0000      Z:    -5.2800     Total:     5.2800

  Dipole Moment: [D]
     X:     0.0000      Y:     0.0000      Z:   -13.4203     Total:    13.4203


*** tstop() called on c4-15.compute.lan at Mon Mar  1 10:37:03 2021
Module time:
	user time   =      69.10 seconds =       1.15 minutes
	system time =       0.67 seconds =       0.01 minutes
	total time  =         70 seconds =       1.17 minutes
Total time:
	user time   =     138.52 seconds =       2.31 minutes
	system time =       2.20 seconds =       0.04 minutes
	total time  =        142 seconds =       2.37 minutes

  //>>>>>>>>>>>>>>>>>>>>>>>>>>>>>>>>>>>//
  //    Loading displacement 3 of 5    //
  //<<<<<<<<<<<<<<<<<<<<<<<<<<<<<<<<<<<//

*** tstart() called on c4-15.compute.lan
*** at Mon Mar  1 10:37:03 2021

   => Loading Basis Set <=

    Name: JEROME
    Role: ORBITAL
    Keyword: BASIS
    atoms 1-2 entry S          line   944 file /apps/gb/PSI4/1.4.0/share/psi4/basis/aug-cc-pv_tpd_z.gbs 
    atoms 3   entry K          line     5 inputblock pot 


         ---------------------------------------------------------
                                   SCF
               by Justin Turney, Rob Parrish, Andy Simmonett
                          and Daniel G. A. Smith
                              UKS Reference
                        1 Threads,  43869 MiB Core
         ---------------------------------------------------------

  ==> Geometry <==

    Molecular point group: c2v
    Full point group: C_inf_v

    Geometry (in Angstrom), charge = 0, multiplicity = 2:

       Center              X                  Y                   Z               Mass       
    ------------   -----------------  -----------------  -----------------  -----------------
         S            0.000000000000     0.000000000000     0.439171708606    31.972071174400
         S            0.000000000000     0.000000000000     2.438608100366    31.972071174400
         K            0.000000000000     0.000000000000    -2.361391899634    38.963706486400

  Running in c2v symmetry.

  Rotational constants: A = ************  B =      0.04076  C =      0.04076 [cm^-1]
  Rotational constants: A = ************  B =   1222.00138  C =   1222.00138 [MHz]
  Nuclear repulsion =  158.710296249056967

  Charge       = 0
  Multiplicity = 2
  Electrons    = 51
  Nalpha       = 26
  Nbeta        = 25

  ==> Algorithm <==

  SCF Algorithm Type is DF.
  DIIS enabled.
  MOM disabled.
  Fractional occupation disabled.
  Guess Type is SAD.
  Energy threshold   = 1.00e-08
  Density threshold  = 1.00e-08
  Integral threshold = 0.00e+00

  ==> Primary Basis <==

  Basis Set: JEROME
    Blend: AUG-CC-PV(T+D)Z + POT
    Number of shells: 53
    Number of basis function: 169
    Number of Cartesian functions: 199
    Spherical Harmonics?: true
    Max angular momentum: 3

  ==> DFT Potential <==

   => Composite Functional: WB97M-V <= 

    wB97M-V Hyb-GGA Exchange-Correlation Functional

    N. Mardirossian and M. Head-Gordon, J. Chem. Phys. 144, 214110 (2016)

    Deriv               =              1
    GGA                 =           TRUE
    Meta                =           TRUE

    Exchange Hybrid     =           TRUE
    MP2 Hybrid          =          FALSE

   => Exchange-Correlation Functionals <=

    1.0000   wB97M-V exchange-correlation functional

   => Exact (HF) Exchange <=

    0.8500            HF,LR [omega = 0.3000]
    0.1500               HF 

   => VV10 Non-Local Parameters <=

    VV10 B              =     6.0000E+00
    VV10 C              =     1.0000E-02

   => Molecular Quadrature <=

    Radial Scheme          =       TREUTLER
    Pruning Scheme         =           NONE
    Nuclear Scheme         =       TREUTLER

    BS radius alpha        =              1
    Pruning alpha          =              1
    Radial Points          =             99
    Spherical Points       =            590
    Total Points           =         171767
    Total Blocks           =           1534
    Max Points             =            256
    Max Functions          =            169
    Weights Tolerance      =       1.00E-15

   => Loading Basis Set <=

    Name: (JEROME AUX)
    Role: JKFIT
    Keyword: DF_BASIS_SCF
    atoms 1-2 entry S          line   730 file /apps/gb/PSI4/1.4.0/share/psi4/basis/aug-cc-pvtz-jkfit.gbs 
    atoms 3   entry K          line  1157 file /apps/gb/PSI4/1.4.0/share/psi4/basis/def2-qzvpp-jkfit.gbs 

  ==> Pre-Iterations <==

   -------------------------------------------------------
    Irrep   Nso     Nmo     Nalpha   Nbeta   Ndocc  Nsocc
   -------------------------------------------------------
     A1        71      71       0       0       0       0
     A2        18      18       0       0       0       0
     B1        40      40       0       0       0       0
     B2        40      40       0       0       0       0
   -------------------------------------------------------
    Total     169     169      26      25      25       1
   -------------------------------------------------------

  ==> Integral Setup <==

  ==> DiskDFJK: Density-Fitted J/K Matrices <==

    J tasked:                  Yes
    K tasked:                  Yes
    wK tasked:                 Yes
    Omega:               3.000E-01
    OpenMP threads:              1
    Integrals threads:           1
    Memory [MiB]:            31078
    Algorithm:                Core
    Integral Cache:           NONE
    Schwarz Cutoff:          1E-12
    Fitting Condition:       1E-10

   => Auxiliary Basis Set <=

  Basis Set: (JEROME AUX)
    Blend: AUG-CC-PVTZ-JKFIT + DEF2-QZVPP-JKFIT
    Number of shells: 128
    Number of basis function: 452
    Number of Cartesian functions: 563
    Spherical Harmonics?: true
    Max angular momentum: 4

  Cached 100.0% of DFT collocation blocks in 1.781 [GiB].

  Minimum eigenvalue in the overlap matrix is 1.8246972200E-04.
  Using Symmetric Orthogonalization.

  SCF Guess: Superposition of Atomic Densities via on-the-fly atomic UHF.

  ==> Iterations <==

                           Total Energy        Delta E     RMS |[F,P]|

   @DF-UKS iter SAD: -1395.72474148962419   -1.39572e+03   0.00000e+00 
   @DF-UKS iter   1: -1396.23278855168110   -5.08047e-01   4.19238e-03 DIIS
   @DF-UKS iter   2: -1396.28588608971882   -5.30975e-02   2.69137e-03 DIIS
   @DF-UKS iter   3: -1396.31225421909153   -2.63681e-02   5.68099e-04 DIIS
   @DF-UKS iter   4: -1396.31359844554868   -1.34423e-03   1.20299e-04 DIIS
   @DF-UKS iter   5: -1396.31372121752452   -1.22772e-04   5.82970e-05 DIIS
   @DF-UKS iter   6: -1396.31374196923821   -2.07517e-05   1.30191e-05 DIIS
   @DF-UKS iter   7: -1396.31374574937286   -3.78013e-06   5.25606e-06 DIIS
   @DF-UKS iter   8: -1396.31374670241235   -9.53039e-07   2.93779e-06 DIIS
   @DF-UKS iter   9: -1396.31374706776273   -3.65350e-07   1.53569e-06 DIIS
   @DF-UKS iter  10: -1396.31374718078860   -1.13026e-07   3.86060e-07 DIIS
   @DF-UKS iter  11: -1396.31374718604138   -5.25279e-09   8.83330e-08 DIIS
   @DF-UKS iter  12: -1396.31374718626034   -2.18961e-10   2.25997e-08 DIIS
   @DF-UKS iter  13: -1396.31374718627444   -1.40972e-11   5.97371e-09 DIIS
  Energy and wave function converged.


  ==> Post-Iterations <==

   @Spin Contamination Metric:   4.788176480E-03
   @S^2 Expected:                7.500000000E-01
   @S^2 Observed:                7.547881765E-01
   @S   Expected:                5.000000000E-01
   @S   Observed:                5.000000000E-01

    Orbital Energies [Eh]
    ---------------------

    Alpha Occupied:                                                       

       1A1  -130.211367     2A1   -89.147248     3A1   -89.142884  
       4A1   -13.454036     1B1   -10.731740     1B2   -10.731584  
       5A1   -10.731240     6A1    -8.057691     7A1    -8.055128  
       2B1    -5.970593     8A1    -5.967559     3B1    -5.964844  
       9A1    -5.964537     2B2    -5.958400     3B2    -5.957996  
      10A1    -1.551168    11A1    -0.900307     4B1    -0.899572  
       4B2    -0.898755    12A1    -0.824976    13A1    -0.644707  
      14A1    -0.390741     5B1    -0.368273     5B2    -0.350802  
       6B1    -0.246704     6B2    -0.227616  

    Alpha Virtual:                                                        

      15A1    -0.043055     7B1    -0.004343     7B2    -0.004340  
      16A1     0.002559    17A1     0.011438     8B1     0.014357  
       8B2     0.014466     1A2     0.017169    18A1     0.017198  
      19A1     0.021679     9B1     0.022319     9B2     0.022551  
      20A1     0.026019     2A2     0.039720    21A1     0.039837  
      10B1     0.049119    10B2     0.049642    22A1     0.051923  
      11B1     0.057866    11B2     0.058195    23A1     0.062763  
      24A1     0.074029    25A1     0.086125    12B1     0.102564  
      12B2     0.103622    13B2     0.108007    13B1     0.108038  
       3A2     0.110058    26A1     0.110165     4A2     0.116312  
      27A1     0.116353    28A1     0.119539    14B1     0.131634  
      14B2     0.134079    29A1     0.136815    30A1     0.144911  
      15B1     0.159265    15B2     0.161405    16B1     0.186983  
      31A1     0.188436    16B2     0.189384    17B1     0.193504  
      17B2     0.194426    32A1     0.235797    33A1     0.269149  
       5A2     0.273643    34A1     0.274859    35A1     0.277769  
       6A2     0.285603    36A1     0.285773    18B1     0.306183  
      18B2     0.308483     7A2     0.327697    37A1     0.327825  
      19B1     0.329612    38A1     0.330096    19B2     0.334371  
      20B1     0.340912    20B2     0.340920    39A1     0.387450  
      40A1     0.393190     8A2     0.408768    41A1     0.408949  
      21B1     0.409122    21B2     0.413733    22B1     0.470021  
      42A1     0.475371    22B2     0.477063    23B1     0.572983  
      23B2     0.584000    43A1     0.627842    24B1     0.658528  
      44A1     0.662310     9A2     0.663924    24B2     0.667804  
      45A1     0.681016    46A1     0.740110    10A2     0.740180  
      25B1     0.742905    25B2     0.755230    47A1     0.755604  
      26B2     0.784230    26B1     0.784232    27B1     0.814036  
      27B2     0.823436    48A1     0.858009    11A2     0.873551  
      49A1     0.873798    28B2     0.922944    28B1     0.922950  
      50A1     0.933346    51A1     1.044020    29B1     1.079653  
      29B2     1.091588    52A1     1.109425    12A2     1.110015  
      53A1     1.161780    30B1     1.242757    30B2     1.254920  
      54A1     1.370828    55A1     1.537659    13A2     1.768942  
      56A1     1.768962    57A1     1.852620    14A2     1.853038  
      31B1     1.904545    58A1     1.904619    31B2     1.922246  
      32B1     1.993033    32B2     2.015895    33B1     2.091458  
      59A1     2.104291    33B2     2.107062    15A2     2.165399  
      60A1     2.165890    34B1     2.185284    34B2     2.185416  
      35B1     2.223669    36B1     2.244382    35B2     2.244450  
      36B2     2.247981    61A1     2.258680    37B1     2.367299  
      62A1     2.376555    16A2     2.377313    37B2     2.387833  
      63A1     2.517790    64A1     2.605279    38B1     2.677317  
      38B2     2.696976    65A1     3.766028    66A1     4.730471  
      67A1     5.473566    68A1     6.970332    17A2     6.970364  
      18A2     7.008296    69A1     7.008304    39B1     7.052339  
      39B2     7.065146    40B1     7.112585    40B2     7.122808  
      70A1     7.180831    71A1     7.237315  

    Beta Occupied:                                                        

       1A1  -130.211354     2A1   -89.143561     3A1   -89.140879  
       4A1   -13.454019     1B1   -10.731663     1B2   -10.731583  
       5A1   -10.731233     6A1    -8.054013     7A1    -8.053078  
       8A1    -5.965142     9A1    -5.963364     2B1    -5.957467  
       3B1    -5.957432     2B2    -5.956538     3B2    -5.955786  
      10A1    -1.551056    11A1    -0.899790     4B1    -0.899262  
       4B2    -0.898748    12A1    -0.812049    13A1    -0.618735  
      14A1    -0.379021     5B2    -0.343899     5B1    -0.320312  
       6B2    -0.217969  

    Beta Virtual:                                                         

      15A1    -0.043354     6B1    -0.007532     7B2    -0.004255  
      16A1     0.002345     7B1     0.003255    17A1     0.011337  
       8B2     0.014499     8B1     0.014969    18A1     0.017105  
       1A2     0.017117    19A1     0.021332     9B1     0.022203  
       9B2     0.022587    20A1     0.025874    21A1     0.039412  
       2A2     0.039465    10B1     0.049355    10B2     0.049774  
      22A1     0.051878    11B1     0.057792    11B2     0.058257  
      23A1     0.062807    24A1     0.073347    25A1     0.086286  
      12B2     0.103930    12B1     0.104537    13B1     0.107405  
      13B2     0.107420    26A1     0.109946     3A2     0.109954  
      27A1     0.115052     4A2     0.115528    28A1     0.119522  
      14B1     0.130045    14B2     0.134344    29A1     0.139712  
      30A1     0.149357    15B1     0.161510    15B2     0.161886  
      16B1     0.188939    31A1     0.189005    16B2     0.189925  
      17B2     0.194510    17B1     0.194784    32A1     0.236598  
      33A1     0.270785    34A1     0.275145     5A2     0.277328  
      35A1     0.279016     6A2     0.286312    36A1     0.286341  
      18B1     0.306375    18B2     0.308750    37A1     0.327685  
       7A2     0.328723    38A1     0.330188    19B2     0.335361  
      19B1     0.336327    20B1     0.339477    20B2     0.339502  
      39A1     0.390047    40A1     0.392760    41A1     0.410778  
       8A2     0.411374    21B1     0.414986    21B2     0.415165  
      42A1     0.476297    22B1     0.478099    22B2     0.479128  
      23B1     0.580707    23B2     0.586122    43A1     0.632214  
      24B1     0.663902    24B2     0.668984    44A1     0.674758  
       9A2     0.676316    45A1     0.682432    10A2     0.752980  
      46A1     0.753132    25B1     0.756411    25B2     0.759494  
      47A1     0.761772    26B1     0.787366    26B2     0.787625  
      27B1     0.824067    27B2     0.826456    48A1     0.864219  
      11A2     0.880011    49A1     0.880317    28B1     0.927234  
      28B2     0.927682    50A1     0.939496    51A1     1.047655  
      29B1     1.087751    29B2     1.092766    52A1     1.114110  
      12A2     1.114931    53A1     1.163857    30B1     1.253540  
      30B2     1.256585    54A1     1.385531    55A1     1.553801  
      13A2     1.793939    56A1     1.794375    14A2     1.874910  
      57A1     1.875428    58A1     1.910033    31B2     1.924072  
      31B1     1.924718    32B2     2.022977    32B1     2.028297  
      33B1     2.108375    33B2     2.110243    59A1     2.110628  
      60A1     2.180033    15A2     2.180793    34B2     2.209440  
      34B1     2.210184    35B2     2.258139    35B1     2.266858  
      61A1     2.267517    36B2     2.269520    36B1     2.270462  
      62A1     2.393227    37B2     2.393321    16A2     2.394088  
      37B1     2.395461    63A1     2.527363    64A1     2.612741  
      38B2     2.701403    38B1     2.702935    65A1     3.771195  
      66A1     4.742874    67A1     5.484141    68A1     6.977628  
      17A2     6.977837    69A1     7.014581    18A2     7.014740  
      39B1     7.059733    39B2     7.065561    40B1     7.118651  
      40B2     7.123019    70A1     7.183927    71A1     7.239707  

    Final Occupation by Irrep:
             A1    A2    B1    B2 
    DOCC [    14,    0,    5,    6 ]
    SOCC [     0,    0,    1,    0 ]

  @DF-UKS Final Energy: -1396.31374718627444

   => Energetics <=

    Nuclear Repulsion Energy =            158.7102962490569666
    One-Electron Energy =               -2242.6957726389109666
    Two-Electron Energy =                 753.1163470328119729
    DFT Exchange-Correlation Energy =     -65.6573366209184002
    Empirical Dispersion Energy =           0.0000000000000000
    VV10 Nonlocal Energy =                  0.2127187916862500
    Total Energy =                      -1396.3137471862739858

  UHF NO Occupations:
  HONO-2 :   14 A1 1.9997001
  HONO-1 :    5 B1 1.9982262
  HONO-0 :    6 B1 1.0000000
  LUNO+0 :    7 B1 0.0017738
  LUNO+1 :   15 A1 0.0002999
  LUNO+2 :    7 B2 0.0001322
  LUNO+3 :   16 A1 0.0001149


Computation Completed


Properties will be evaluated at   0.000000,   0.000000,   0.000000 [a0]

Properties computed using the SCF density matrix

  Nuclear Dipole Moment: [e a0]
     X:     0.0000      Y:     0.0000      Z:     2.2262

  Electronic Dipole Moment: [e a0]
     X:     0.0000      Y:     0.0000      Z:    -7.5084

  Dipole Moment: [e a0]
     X:     0.0000      Y:     0.0000      Z:    -5.2823     Total:     5.2823

  Dipole Moment: [D]
     X:     0.0000      Y:     0.0000      Z:   -13.4262     Total:    13.4262


*** tstop() called on c4-15.compute.lan at Mon Mar  1 10:38:12 2021
Module time:
	user time   =      68.39 seconds =       1.14 minutes
	system time =       0.72 seconds =       0.01 minutes
	total time  =         69 seconds =       1.15 minutes
Total time:
	user time   =     206.91 seconds =       3.45 minutes
	system time =       2.92 seconds =       0.05 minutes
	total time  =        211 seconds =       3.52 minutes

  //>>>>>>>>>>>>>>>>>>>>>>>>>>>>>>>>>>>//
  //    Loading displacement 4 of 5    //
  //<<<<<<<<<<<<<<<<<<<<<<<<<<<<<<<<<<<//

*** tstart() called on c4-15.compute.lan
*** at Mon Mar  1 10:38:12 2021

   => Loading Basis Set <=

    Name: JEROME
    Role: ORBITAL
    Keyword: BASIS
    atoms 1-2 entry S          line   944 file /apps/gb/PSI4/1.4.0/share/psi4/basis/aug-cc-pv_tpd_z.gbs 
    atoms 3   entry K          line     5 inputblock pot 


         ---------------------------------------------------------
                                   SCF
               by Justin Turney, Rob Parrish, Andy Simmonett
                          and Daniel G. A. Smith
                              UKS Reference
                        1 Threads,  43869 MiB Core
         ---------------------------------------------------------

  ==> Geometry <==

    Molecular point group: c2v
    Full point group: C_inf_v

    Geometry (in Angstrom), charge = 0, multiplicity = 2:

       Center              X                  Y                   Z               Mass       
    ------------   -----------------  -----------------  -----------------  -----------------
         S            0.000000000000     0.000000000000     0.438783205793    31.972071174400
         S            0.000000000000     0.000000000000     2.438436402497    31.972071174400
         K            0.000000000000     0.000000000000    -2.360932221187    38.963706486400

  Running in c2v symmetry.

  Rotational constants: A = ************  B =      0.04077  C =      0.04077 [cm^-1]
  Rotational constants: A = ************  B =   1222.36273  C =   1222.36273 [MHz]
  Nuclear repulsion =  158.724761469721329

  Charge       = 0
  Multiplicity = 2
  Electrons    = 51
  Nalpha       = 26
  Nbeta        = 25

  ==> Algorithm <==

  SCF Algorithm Type is DF.
  DIIS enabled.
  MOM disabled.
  Fractional occupation disabled.
  Guess Type is SAD.
  Energy threshold   = 1.00e-08
  Density threshold  = 1.00e-08
  Integral threshold = 0.00e+00

  ==> Primary Basis <==

  Basis Set: JEROME
    Blend: AUG-CC-PV(T+D)Z + POT
    Number of shells: 53
    Number of basis function: 169
    Number of Cartesian functions: 199
    Spherical Harmonics?: true
    Max angular momentum: 3

  ==> DFT Potential <==

   => Composite Functional: WB97M-V <= 

    wB97M-V Hyb-GGA Exchange-Correlation Functional

    N. Mardirossian and M. Head-Gordon, J. Chem. Phys. 144, 214110 (2016)

    Deriv               =              1
    GGA                 =           TRUE
    Meta                =           TRUE

    Exchange Hybrid     =           TRUE
    MP2 Hybrid          =          FALSE

   => Exchange-Correlation Functionals <=

    1.0000   wB97M-V exchange-correlation functional

   => Exact (HF) Exchange <=

    0.8500            HF,LR [omega = 0.3000]
    0.1500               HF 

   => VV10 Non-Local Parameters <=

    VV10 B              =     6.0000E+00
    VV10 C              =     1.0000E-02

   => Molecular Quadrature <=

    Radial Scheme          =       TREUTLER
    Pruning Scheme         =           NONE
    Nuclear Scheme         =       TREUTLER

    BS radius alpha        =              1
    Pruning alpha          =              1
    Radial Points          =             99
    Spherical Points       =            590
    Total Points           =         171775
    Total Blocks           =           1532
    Max Points             =            256
    Max Functions          =            169
    Weights Tolerance      =       1.00E-15

   => Loading Basis Set <=

    Name: (JEROME AUX)
    Role: JKFIT
    Keyword: DF_BASIS_SCF
    atoms 1-2 entry S          line   730 file /apps/gb/PSI4/1.4.0/share/psi4/basis/aug-cc-pvtz-jkfit.gbs 
    atoms 3   entry K          line  1157 file /apps/gb/PSI4/1.4.0/share/psi4/basis/def2-qzvpp-jkfit.gbs 

  ==> Pre-Iterations <==

   -------------------------------------------------------
    Irrep   Nso     Nmo     Nalpha   Nbeta   Ndocc  Nsocc
   -------------------------------------------------------
     A1        71      71       0       0       0       0
     A2        18      18       0       0       0       0
     B1        40      40       0       0       0       0
     B2        40      40       0       0       0       0
   -------------------------------------------------------
    Total     169     169      26      25      25       1
   -------------------------------------------------------

  ==> Integral Setup <==

  ==> DiskDFJK: Density-Fitted J/K Matrices <==

    J tasked:                  Yes
    K tasked:                  Yes
    wK tasked:                 Yes
    Omega:               3.000E-01
    OpenMP threads:              1
    Integrals threads:           1
    Memory [MiB]:            31077
    Algorithm:                Core
    Integral Cache:           NONE
    Schwarz Cutoff:          1E-12
    Fitting Condition:       1E-10

   => Auxiliary Basis Set <=

  Basis Set: (JEROME AUX)
    Blend: AUG-CC-PVTZ-JKFIT + DEF2-QZVPP-JKFIT
    Number of shells: 128
    Number of basis function: 452
    Number of Cartesian functions: 563
    Spherical Harmonics?: true
    Max angular momentum: 4

  Cached 100.0% of DFT collocation blocks in 1.781 [GiB].

  Minimum eigenvalue in the overlap matrix is 1.8254673928E-04.
  Using Symmetric Orthogonalization.

  SCF Guess: Superposition of Atomic Densities via on-the-fly atomic UHF.

  ==> Iterations <==

                           Total Energy        Delta E     RMS |[F,P]|

   @DF-UKS iter SAD: -1395.72509578569975   -1.39573e+03   0.00000e+00 
   @DF-UKS iter   1: -1396.23273665633178   -5.07641e-01   4.19438e-03 DIIS
   @DF-UKS iter   2: -1396.28571006361813   -5.29734e-02   2.69794e-03 DIIS
   @DF-UKS iter   3: -1396.31224833406054   -2.65383e-02   5.70243e-04 DIIS
   @DF-UKS iter   4: -1396.31360344437303   -1.35511e-03   1.20245e-04 DIIS
   @DF-UKS iter   5: -1396.31372605318302   -1.22609e-04   5.81984e-05 DIIS
   @DF-UKS iter   6: -1396.31374670311379   -2.06499e-05   1.29711e-05 DIIS
   @DF-UKS iter   7: -1396.31375042771788   -3.72460e-06   5.18977e-06 DIIS
   @DF-UKS iter   8: -1396.31375135302505   -9.25307e-07   2.90266e-06 DIIS
   @DF-UKS iter   9: -1396.31375170777869   -3.54754e-07   1.52725e-06 DIIS
   @DF-UKS iter  10: -1396.31375181992325   -1.12145e-07   3.86634e-07 DIIS
   @DF-UKS iter  11: -1396.31375182522288   -5.29963e-09   8.88387e-08 DIIS
   @DF-UKS iter  12: -1396.31375182544616   -2.23281e-10   2.26540e-08 DIIS
   @DF-UKS iter  13: -1396.31375182545844   -1.22782e-11   5.99618e-09 DIIS
  Energy and wave function converged.


  ==> Post-Iterations <==

   @Spin Contamination Metric:   4.788536938E-03
   @S^2 Expected:                7.500000000E-01
   @S^2 Observed:                7.547885369E-01
   @S   Expected:                5.000000000E-01
   @S   Observed:                5.000000000E-01

    Orbital Energies [Eh]
    ---------------------

    Alpha Occupied:                                                       

       1A1  -130.211307     2A1   -89.147296     3A1   -89.142906  
       4A1   -13.453976     1B1   -10.731680     1B2   -10.731524  
       5A1   -10.731180     6A1    -8.057734     7A1    -8.055150  
       2B1    -5.970638     8A1    -5.967603     3B1    -5.964864  
       9A1    -5.964559     2B2    -5.958443     3B2    -5.958018  
      10A1    -1.551117    11A1    -0.900274     4B1    -0.899522  
       4B2    -0.898705    12A1    -0.824951    13A1    -0.644752  
      14A1    -0.390750     5B1    -0.368278     5B2    -0.350807  
       6B1    -0.246754     6B2    -0.227666  

    Alpha Virtual:                                                        

      15A1    -0.043034     7B2    -0.004330     7B1    -0.004330  
      16A1     0.002566    17A1     0.011443     8B1     0.014363  
       8B2     0.014473     1A2     0.017172    18A1     0.017203  
      19A1     0.021685     9B1     0.022320     9B2     0.022552  
      20A1     0.026017     2A2     0.039728    21A1     0.039849  
      10B1     0.049126    10B2     0.049647    22A1     0.051929  
      11B1     0.057874    11B2     0.058205    23A1     0.062755  
      24A1     0.074038    25A1     0.086113    12B1     0.102572  
      12B2     0.103631    13B2     0.108020    13B1     0.108049  
       3A2     0.110069    26A1     0.110178     4A2     0.116329  
      27A1     0.116374    28A1     0.119551    14B1     0.131643  
      14B2     0.134089    29A1     0.136801    30A1     0.144887  
      15B1     0.159279    15B2     0.161420    16B1     0.186981  
      31A1     0.188427    16B2     0.189385    17B1     0.193524  
      17B2     0.194443    32A1     0.235781    33A1     0.269110  
       5A2     0.273646    34A1     0.274857    35A1     0.277809  
       6A2     0.285632    36A1     0.285802    18B1     0.306206  
      18B2     0.308505     7A2     0.327697    37A1     0.327827  
      19B1     0.329625    38A1     0.330142    19B2     0.334388  
      20B1     0.340936    20B2     0.340944    39A1     0.387457  
      40A1     0.393153     8A2     0.408787    41A1     0.408968  
      21B1     0.409113    21B2     0.413724    22B1     0.470041  
      42A1     0.475416    22B2     0.477083    23B1     0.572983  
      23B2     0.584000    43A1     0.627835    24B1     0.658549  
      44A1     0.662312     9A2     0.663923    24B2     0.667826  
      45A1     0.681055    46A1     0.740092    10A2     0.740162  
      25B1     0.742883    25B2     0.755210    47A1     0.755570  
      26B2     0.784218    26B1     0.784219    27B1     0.813999  
      27B2     0.823396    48A1     0.858032    11A2     0.873528  
      49A1     0.873776    28B2     0.922910    28B1     0.922916  
      50A1     0.933454    51A1     1.044052    29B1     1.079628  
      29B2     1.091563    52A1     1.109373    12A2     1.109963  
      53A1     1.161758    30B1     1.242737    30B2     1.254899  
      54A1     1.370788    55A1     1.537665    13A2     1.768918  
      56A1     1.768938    57A1     1.852593    14A2     1.853010  
      31B1     1.904480    58A1     1.904672    31B2     1.922184  
      32B1     1.993052    32B2     2.015914    33B1     2.091465  
      59A1     2.104365    33B2     2.107069    15A2     2.165464  
      60A1     2.165954    34B1     2.185271    34B2     2.185403  
      35B1     2.223673    36B1     2.244347    35B2     2.244415  
      36B2     2.247984    61A1     2.258646    37B1     2.367189  
      62A1     2.376460    16A2     2.377218    37B2     2.387724  
      63A1     2.517715    64A1     2.604982    38B1     2.677136  
      38B2     2.696794    65A1     3.765885    66A1     4.730270  
      67A1     5.473510    68A1     6.970300    17A2     6.970332  
      18A2     7.008272    69A1     7.008280    39B1     7.052307  
      39B2     7.065118    40B1     7.112533    40B2     7.122753  
      70A1     7.180888    71A1     7.237066  

    Beta Occupied:                                                        

       1A1  -130.211293     2A1   -89.143608     3A1   -89.140901  
       4A1   -13.453959     1B1   -10.731603     1B2   -10.731523  
       5A1   -10.731173     6A1    -8.054055     7A1    -8.053100  
       8A1    -5.965185     9A1    -5.963387     2B1    -5.957507  
       3B1    -5.957456     2B2    -5.956560     3B2    -5.955828  
      10A1    -1.551004    11A1    -0.899755     4B1    -0.899211  
       4B2    -0.898697    12A1    -0.812022    13A1    -0.618782  
      14A1    -0.379031     5B2    -0.343904     5B1    -0.320312  
       6B2    -0.218019  

    Beta Virtual:                                                         

      15A1    -0.043333     6B1    -0.007531     7B2    -0.004244  
      16A1     0.002353     7B1     0.003226    17A1     0.011342  
       8B2     0.014505     8B1     0.014972    18A1     0.017108  
       1A2     0.017120    19A1     0.021339     9B1     0.022204  
       9B2     0.022588    20A1     0.025872    21A1     0.039421  
       2A2     0.039473    10B1     0.049359    10B2     0.049780  
      22A1     0.051883    11B1     0.057801    11B2     0.058267  
      23A1     0.062800    24A1     0.073357    25A1     0.086276  
      12B2     0.103940    12B1     0.104546    13B1     0.107416  
      13B2     0.107431    26A1     0.109957     3A2     0.109965  
      27A1     0.115069     4A2     0.115545    28A1     0.119532  
      14B1     0.130055    14B2     0.134354    29A1     0.139711  
      30A1     0.149323    15B1     0.161522    15B2     0.161901  
      16B1     0.188944    31A1     0.188996    16B2     0.189927  
      17B2     0.194527    17B1     0.194802    32A1     0.236584  
      33A1     0.270733    34A1     0.275175     5A2     0.277338  
      35A1     0.279038     6A2     0.286336    36A1     0.286363  
      18B1     0.306395    18B2     0.308771    37A1     0.327689  
       7A2     0.328726    38A1     0.330235    19B2     0.335380  
      19B1     0.336344    20B1     0.339500    20B2     0.339525  
      39A1     0.390057    40A1     0.392723    41A1     0.410796  
       8A2     0.411391    21B1     0.414976    21B2     0.415156  
      42A1     0.476341    22B1     0.478119    22B2     0.479148  
      23B1     0.580705    23B2     0.586121    43A1     0.632210  
      24B1     0.663922    24B2     0.669005    44A1     0.674772  
       9A2     0.676322    45A1     0.682461    10A2     0.752957  
      46A1     0.753109    25B1     0.756396    25B2     0.759478  
      47A1     0.761740    26B1     0.787354    26B2     0.787612  
      27B1     0.824025    27B2     0.826414    48A1     0.864240  
      11A2     0.879987    49A1     0.880293    28B1     0.927199  
      28B2     0.927647    50A1     0.939615    51A1     1.047680  
      29B1     1.087726    29B2     1.092741    52A1     1.114057  
      12A2     1.114877    53A1     1.163833    30B1     1.253519  
      30B2     1.256565    54A1     1.385490    55A1     1.553805  
      13A2     1.793917    56A1     1.794353    14A2     1.874879  
      57A1     1.875397    58A1     1.910086    31B2     1.924012  
      31B1     1.924660    32B2     2.022994    32B1     2.028310  
      33B1     2.108382    33B2     2.110251    59A1     2.110703  
      60A1     2.180101    15A2     2.180860    34B2     2.209429  
      34B1     2.210173    35B2     2.258141    35B1     2.266858  
      61A1     2.267483    36B2     2.269485    36B1     2.270427  
      62A1     2.393130    37B2     2.393213    16A2     2.393990  
      37B1     2.395355    63A1     2.527287    64A1     2.612444  
      38B2     2.701221    38B1     2.702752    65A1     3.771051  
      66A1     4.742673    67A1     5.484086    68A1     6.977599  
      17A2     6.977808    69A1     7.014555    18A2     7.014714  
      39B1     7.059705    39B2     7.065534    40B1     7.118596  
      40B2     7.122964    70A1     7.183985    71A1     7.239456  

    Final Occupation by Irrep:
             A1    A2    B1    B2 
    DOCC [    14,    0,    5,    6 ]
    SOCC [     0,    0,    1,    0 ]

  @DF-UKS Final Energy: -1396.31375182545844

   => Energetics <=

    Nuclear Repulsion Energy =            158.7247614697213294
    One-Electron Energy =               -2242.7248081442057810
    Two-Electron Energy =                 753.1309042196152177
    DFT Exchange-Correlation Energy =     -65.6573271272411034
    Empirical Dispersion Energy =           0.0000000000000000
    VV10 Nonlocal Energy =                  0.2127177566516369
    Total Energy =                      -1396.3137518254586666

  UHF NO Occupations:
  HONO-2 :   14 A1 1.9997001
  HONO-1 :    5 B1 1.9982260
  HONO-0 :    6 B1 1.0000000
  LUNO+0 :    7 B1 0.0017740
  LUNO+1 :   15 A1 0.0002999
  LUNO+2 :    7 B2 0.0001321
  LUNO+3 :   16 A1 0.0001149


Computation Completed


Properties will be evaluated at   0.000000,   0.000000,   0.000000 [a0]

Properties computed using the SCF density matrix

  Nuclear Dipole Moment: [e a0]
     X:     0.0000      Y:     0.0000      Z:     2.2257

  Electronic Dipole Moment: [e a0]
     X:     0.0000      Y:     0.0000      Z:    -7.5061

  Dipole Moment: [e a0]
     X:     0.0000      Y:     0.0000      Z:    -5.2804     Total:     5.2804

  Dipole Moment: [D]
     X:     0.0000      Y:     0.0000      Z:   -13.4214     Total:    13.4214


*** tstop() called on c4-15.compute.lan at Mon Mar  1 10:39:23 2021
Module time:
	user time   =      70.75 seconds =       1.18 minutes
	system time =       0.74 seconds =       0.01 minutes
	total time  =         71 seconds =       1.18 minutes
Total time:
	user time   =     277.66 seconds =       4.63 minutes
	system time =       3.67 seconds =       0.06 minutes
	total time  =        282 seconds =       4.70 minutes

  //>>>>>>>>>>>>>>>>>>>>>>>>>>>>>>>>>>>//
  //    Loading displacement 5 of 5    //
  //<<<<<<<<<<<<<<<<<<<<<<<<<<<<<<<<<<<//

*** tstart() called on c4-15.compute.lan
*** at Mon Mar  1 10:39:24 2021

   => Loading Basis Set <=

    Name: JEROME
    Role: ORBITAL
    Keyword: BASIS
    atoms 1-2 entry S          line   944 file /apps/gb/PSI4/1.4.0/share/psi4/basis/aug-cc-pv_tpd_z.gbs 
    atoms 3   entry K          line     5 inputblock pot 


         ---------------------------------------------------------
                                   SCF
               by Justin Turney, Rob Parrish, Andy Simmonett
                          and Daniel G. A. Smith
                              UKS Reference
                        1 Threads,  43869 MiB Core
         ---------------------------------------------------------

  ==> Geometry <==

    Molecular point group: c2v
    Full point group: C_inf_v

    Geometry (in Angstrom), charge = 0, multiplicity = 2:

       Center              X                  Y                   Z               Mass       
    ------------   -----------------  -----------------  -----------------  -----------------
         S            0.000000000000     0.000000000000     0.438783205793    31.972071174400
         S            0.000000000000     0.000000000000     2.439130009088    31.972071174400
         K            0.000000000000     0.000000000000    -2.361501367228    38.963706486400

  Running in c2v symmetry.

  Rotational constants: A = ************  B =      0.04075  C =      0.04075 [cm^-1]
  Rotational constants: A = ************  B =   1221.73364  C =   1221.73364 [MHz]
  Nuclear repulsion =  158.680775693056887

  Charge       = 0
  Multiplicity = 2
  Electrons    = 51
  Nalpha       = 26
  Nbeta        = 25

  ==> Algorithm <==

  SCF Algorithm Type is DF.
  DIIS enabled.
  MOM disabled.
  Fractional occupation disabled.
  Guess Type is SAD.
  Energy threshold   = 1.00e-08
  Density threshold  = 1.00e-08
  Integral threshold = 0.00e+00

  ==> Primary Basis <==

  Basis Set: JEROME
    Blend: AUG-CC-PV(T+D)Z + POT
    Number of shells: 53
    Number of basis function: 169
    Number of Cartesian functions: 199
    Spherical Harmonics?: true
    Max angular momentum: 3

  ==> DFT Potential <==

   => Composite Functional: WB97M-V <= 

    wB97M-V Hyb-GGA Exchange-Correlation Functional

    N. Mardirossian and M. Head-Gordon, J. Chem. Phys. 144, 214110 (2016)

    Deriv               =              1
    GGA                 =           TRUE
    Meta                =           TRUE

    Exchange Hybrid     =           TRUE
    MP2 Hybrid          =          FALSE

   => Exchange-Correlation Functionals <=

    1.0000   wB97M-V exchange-correlation functional

   => Exact (HF) Exchange <=

    0.8500            HF,LR [omega = 0.3000]
    0.1500               HF 

   => VV10 Non-Local Parameters <=

    VV10 B              =     6.0000E+00
    VV10 C              =     1.0000E-02

   => Molecular Quadrature <=

    Radial Scheme          =       TREUTLER
    Pruning Scheme         =           NONE
    Nuclear Scheme         =       TREUTLER

    BS radius alpha        =              1
    Pruning alpha          =              1
    Radial Points          =             99
    Spherical Points       =            590
    Total Points           =         171771
    Total Blocks           =           1534
    Max Points             =            256
    Max Functions          =            169
    Weights Tolerance      =       1.00E-15

   => Loading Basis Set <=

    Name: (JEROME AUX)
    Role: JKFIT
    Keyword: DF_BASIS_SCF
    atoms 1-2 entry S          line   730 file /apps/gb/PSI4/1.4.0/share/psi4/basis/aug-cc-pvtz-jkfit.gbs 
    atoms 3   entry K          line  1157 file /apps/gb/PSI4/1.4.0/share/psi4/basis/def2-qzvpp-jkfit.gbs 

  ==> Pre-Iterations <==

   -------------------------------------------------------
    Irrep   Nso     Nmo     Nalpha   Nbeta   Ndocc  Nsocc
   -------------------------------------------------------
     A1        71      71       0       0       0       0
     A2        18      18       0       0       0       0
     B1        40      40       0       0       0       0
     B2        40      40       0       0       0       0
   -------------------------------------------------------
    Total     169     169      26      25      25       1
   -------------------------------------------------------

  ==> Integral Setup <==

  ==> DiskDFJK: Density-Fitted J/K Matrices <==

    J tasked:                  Yes
    K tasked:                  Yes
    wK tasked:                 Yes
    Omega:               3.000E-01
    OpenMP threads:              1
    Integrals threads:           1
    Memory [MiB]:            31078
    Algorithm:                Core
    Integral Cache:           NONE
    Schwarz Cutoff:          1E-12
    Fitting Condition:       1E-10

   => Auxiliary Basis Set <=

  Basis Set: (JEROME AUX)
    Blend: AUG-CC-PVTZ-JKFIT + DEF2-QZVPP-JKFIT
[...]
   @DF-UKS iter   3: -1396.31295920120965   -2.68600e-02   4.13437e-04 DIIS
   @DF-UKS iter   4: -1396.31424677367977   -1.28757e-03   8.83394e-05 DIIS
   @DF-UKS iter   5: -1396.31436736940350   -1.20596e-04   4.25798e-05 DIIS
   @DF-UKS iter   6: -1396.31438728695684   -1.99176e-05   9.53334e-06 DIIS
   @DF-UKS iter   7: -1396.31439076558991   -3.47863e-06   3.63164e-06 DIIS
   @DF-UKS iter   8: -1396.31439154021700   -7.74627e-07   2.00358e-06 DIIS
   @DF-UKS iter   9: -1396.31439182415761   -2.83941e-07   1.07006e-06 DIIS
   @DF-UKS iter  10: -1396.31439192314929   -9.89917e-08   2.67414e-07 DIIS
   @DF-UKS iter  11: -1396.31439192770722   -4.55793e-09   6.29911e-08 DIIS
   @DF-UKS iter  12: -1396.31439192791686   -2.09639e-10   1.51054e-08 DIIS
   @DF-UKS iter  13: -1396.31439192792732   -1.04592e-11   3.73335e-09 DIIS
   @DF-UKS iter  14: -1396.31439192792914   -1.81899e-12   1.72951e-09 DIIS
   @DF-UKS iter  15: -1396.31439192792914    0.00000e+00   5.89882e-10 DIIS
   @DF-UKS iter  16: -1396.31439192792891    2.27374e-13   1.99331e-10 DIIS
   @DF-UKS iter  17: -1396.31439192792845    4.54747e-13   6.36471e-11 DIIS
  Energy and wave function converged.


  ==> Post-Iterations <==

   @Spin Contamination Metric:   4.723284003E-03
   @S^2 Expected:                7.500000000E-01
   @S^2 Observed:                7.547232840E-01
   @S   Expected:                5.000000000E-01
   @S   Observed:                5.000000000E-01

    Orbital Energies [Eh]
    ---------------------

    Alpha Occupied:                                                       

       1Ap  -130.205203     2Ap   -89.147277     3Ap   -89.143803  
       4Ap   -13.447928     1App  -10.725643     5Ap   -10.725461  
       6Ap   -10.725117     7Ap    -8.058225     8Ap    -8.056717  
       2App   -5.971106     9Ap    -5.967999     3App   -5.966383  
      10Ap    -5.966031    11Ap    -5.959564    12Ap    -5.958956  
      13Ap    -1.545915    14Ap    -0.897185     4App   -0.894476  
      15Ap    -0.893545    16Ap    -0.831910    17Ap    -0.644392  
      18Ap    -0.394551     5App   -0.373249    19Ap    -0.355827  
       6App   -0.247186    20Ap    -0.228083  

    Alpha Virtual:                                                        

      21Ap    -0.041042     7App   -0.003415    22Ap    -0.003384  
      23Ap     0.003239    24Ap     0.011880     8App    0.014897  
      25Ap     0.015043     9App    0.017453    26Ap     0.017503  
      10App    0.022364    27Ap     0.022388    28Ap     0.022571  
      29Ap     0.025819    11App    0.040453    30Ap     0.040584  
      12App    0.049535    31Ap     0.050069    32Ap     0.052296  
      13App    0.058869    33Ap     0.059226    34Ap     0.062217  
      35Ap     0.075389    36Ap     0.086642    14App    0.103494  
      37Ap     0.104573    38Ap     0.108801    15App    0.108828  
      16App    0.110876    39Ap     0.110973    17App    0.118040  
      40Ap     0.118063    41Ap     0.120497    18App    0.132140  
      42Ap     0.134634    43Ap     0.139081    44Ap     0.147287  
      19App    0.160876    45Ap     0.163095    20App    0.187136  
      46Ap     0.188128    47Ap     0.189584    21App    0.195451  
      48Ap     0.196448    49Ap     0.233270    50Ap     0.266482  
      22App    0.273330    51Ap     0.274214    52Ap     0.282782  
      23App    0.288807    53Ap     0.288914    24App    0.309127  
      54Ap     0.311232    25App    0.328307    55Ap     0.328462  
      26App    0.330589    56Ap     0.334614    57Ap     0.335826  
      27App    0.343120    58Ap     0.343132    59Ap     0.386335  
      60Ap     0.392164    28App    0.409754    29App    0.412255  
      61Ap     0.412413    62Ap     0.414246    30App    0.473328  
      63Ap     0.480362    64Ap     0.484808    31App    0.571205  
      65Ap     0.582177    66Ap     0.624853    67Ap     0.660566  
      32App    0.661853    33App    0.662261    68Ap     0.671497  
      69Ap     0.682825    70Ap     0.739726    34App    0.739786  
      35App    0.744235    71Ap     0.756287    72Ap     0.759631  
      73Ap     0.781665    36App    0.781667    37App    0.813270  
      74Ap     0.822894    75Ap     0.858164    38App    0.877541  
      76Ap     0.877873    77Ap     0.923266    39App    0.923271  
      78Ap     0.952653    79Ap     1.054341    40App    1.086360  
      80Ap     1.098306    81Ap     1.110571    41App    1.110970  
      82Ap     1.176538    42App    1.247082    83Ap     1.259317  
      84Ap     1.381219    85Ap     1.540637    43App    1.768697  
      86Ap     1.768727    87Ap     1.853144    44App    1.853776  
      88Ap     1.896967    45App    1.905172    89Ap     1.922882  
      46App    1.991371    90Ap     2.014084    47App    2.089647  
      91Ap     2.105360    92Ap     2.105492    48App    2.159339  
      93Ap     2.160056    49App    2.182082    94Ap     2.182208  
      50App    2.224529    51App    2.244162    95Ap     2.244231  
      96Ap     2.248692    97Ap     2.255083    52App    2.380886  
      98Ap     2.382631    53App    2.383324    99Ap     2.401352  
     100Ap     2.533386   101Ap     2.642455    54App    2.691982  
     102Ap     2.711740   103Ap     3.775785   104Ap     4.769188  
     105Ap     5.483495   106Ap     6.969918    55App    6.969955  
      56App    7.008194   107Ap     7.008209    57App    7.051864  
     108Ap     7.064468    58App    7.116255   109Ap     7.126655  
     110Ap     7.171420   111Ap     7.263712  

    Beta Occupied:                                                        

       1Ap  -130.205186     2Ap   -89.143606     3Ap   -89.141812  
       4Ap   -13.447907     1App  -10.725550     5Ap   -10.725458  
       6Ap   -10.725108     7Ap    -8.054708     8Ap    -8.054530  
       9Ap    -5.965631    10Ap    -5.964829     2App   -5.959025  
      11Ap    -5.958117     3App   -5.958020    12Ap    -5.956352  
      13Ap    -1.545775    14Ap    -0.896402     4App   -0.894093  
      15Ap    -0.893530    16Ap    -0.819404    17Ap    -0.618493  
      18Ap    -0.382721    19Ap    -0.348998     5App   -0.326016  
      20Ap    -0.218442  

    Beta Virtual:                                                         

      21Ap    -0.041342     6App   -0.006823    22Ap    -0.003311  
      23Ap     0.003023     7App    0.003206    24Ap     0.011784  
      25Ap     0.015075     8App    0.015461     9App    0.017396  
      26Ap     0.017410    27Ap     0.022029    10App    0.022241  
      28Ap     0.022601    29Ap     0.025656    30Ap     0.040147  
      11App    0.040183    12App    0.049690    31Ap     0.050189  
      32Ap     0.052231    13App    0.058737    33Ap     0.059276  
      34Ap     0.062257    35Ap     0.074589    36Ap     0.086680  
      37Ap     0.104878    14App    0.105519    15App    0.108176  
      38Ap     0.108196    39Ap     0.110771    16App    0.110803  
      40Ap     0.116700    17App    0.117197    41Ap     0.120531  
      18App    0.130554    42Ap     0.134882    43Ap     0.140796  
      44Ap     0.153039    19App    0.162944    45Ap     0.163548  
      46Ap     0.188826    20App    0.189401    47Ap     0.190161  
      48Ap     0.196480    21App    0.196993    49Ap     0.234210  
      50Ap     0.267515    51Ap     0.276634    22App    0.277462  
      52Ap     0.282646    53Ap     0.289026    23App    0.289073  
      24App    0.308736    54Ap     0.311396    55Ap     0.328413  
      25App    0.329482    56Ap     0.334712    57Ap     0.336949  
      26App    0.338020    27App    0.341585    58Ap     0.341613  
      59Ap     0.388369    60Ap     0.392291    61Ap     0.414094  
      28App    0.414695    29App    0.415484    62Ap     0.415635  
      30App    0.481418    63Ap     0.482459    64Ap     0.485788  
      31App    0.578739    65Ap     0.584255    66Ap     0.629517  
      32App    0.667408    67Ap     0.672624    68Ap     0.673307  
      33App    0.674155    69Ap     0.683519    34App    0.752477  
      70Ap     0.752641    35App    0.757364    71Ap     0.760404  
      72Ap     0.766056    36App    0.784816    73Ap     0.785072  
      37App    0.823678    74Ap     0.826048    75Ap     0.864362  
      38App    0.884100    76Ap     0.884400    39App    0.927569  
      77Ap     0.928024    78Ap     0.959100    79Ap     1.057530  
      40App    1.094514    80Ap     1.099500    81Ap     1.115254  
      41App    1.115997    82Ap     1.178801    42App    1.258080  
      83Ap     1.261061    84Ap     1.396656    85Ap     1.556146  
      43App    1.793544    86Ap     1.793975    44App    1.875585  
      87Ap     1.876089    88Ap     1.902428    89Ap     1.924657  
      45App    1.924888    90Ap     2.021233    46App    2.026639  
      47App    2.107148    91Ap     2.108816    92Ap     2.111934  
      93Ap     2.173747    48App    2.174540    94Ap     2.206048  
      49App    2.206789    95Ap     2.258806    96Ap     2.263950  
      50App    2.267431    97Ap     2.269207    51App    2.270144  
      98Ap     2.399331    52App    2.400215    99Ap     2.406754  
      53App    2.408720   100Ap     2.543011   101Ap     2.649989  
     102Ap     2.716233    54App    2.717829   103Ap     3.781156  
     104Ap     4.781580   105Ap     5.493947   106Ap     6.977150  
      55App    6.977360   107Ap     7.014471    56App    7.014634  
      57App    7.059117   108Ap     7.064858    58App    7.122466  
     109Ap     7.126895   110Ap     7.174447   111Ap     7.266231  

    Final Occupation by Irrep:
             Ap   App 
    DOCC [    20,    5 ]
    SOCC [     0,    1 ]

  @DF-UKS Final Energy: -1396.31439192792845

   => Energetics <=

    Nuclear Repulsion Energy =            161.8421144259997391
    One-Electron Energy =               -2248.9901484381498449
    Two-Electron Energy =                 756.2910946191969970
    DFT Exchange-Correlation Energy =     -65.6700017845055584
    Empirical Dispersion Energy =           0.0000000000000000
    VV10 Nonlocal Energy =                  0.2125492495299784
    Total Energy =                      -1396.3143919279289094

  UHF NO Occupations:
  HONO-2 :   20 Ap 1.9996996
  HONO-1 :    5App 1.9982501
  HONO-0 :    6App 1.0000000
  LUNO+0 :    7App 0.0017499
  LUNO+1 :   21 Ap 0.0003004
  LUNO+2 :   22 Ap 0.0001316
  LUNO+3 :   23 Ap 0.0001091


Computation Completed


Properties will be evaluated at   0.000000,   0.000000,   0.000000 [a0]

Properties computed using the SCF density matrix

  Nuclear Dipole Moment: [e a0]
     X:     0.0000      Y:    -0.0001      Z:     2.1745

  Electronic Dipole Moment: [e a0]
     X:     0.0000      Y:     0.0006      Z:    -7.2772

  Dipole Moment: [e a0]
     X:     0.0000      Y:     0.0004      Z:    -5.1027     Total:     5.1027

  Dipole Moment: [D]
     X:     0.0000      Y:     0.0011      Z:   -12.9697     Total:    12.9697


*** tstop() called on c4-15.compute.lan at Mon Mar  1 13:02:23 2021
Module time:
	user time   =      93.42 seconds =       1.56 minutes
	system time =       1.02 seconds =       0.02 minutes
	total time  =         95 seconds =       1.58 minutes
Total time:
	user time   =    8721.26 seconds =     145.35 minutes
	system time =     106.48 seconds =       1.77 minutes
	total time  =       8862 seconds =     147.70 minutes

         ----------------------------------------------------------
                                   FINDIF
                     R. A. King and Jonathon Misiewicz
         ---------------------------------------------------------

  Computing second-derivative from energies using projected, 
  symmetry-adapted, cartesian coordinates.

  9 energies passed in, including the reference geometry.
    Using 3-point formula.
    Energy without displacement: -1396.3143919254
    Check energies below for precision!
    0: -1        :     -1396.3143917641
    0: 1         :     -1396.3143917689
    1: -1        :     -1396.3143918709
    1: 1         :     -1396.3143918650
    0: 1, 1: 1   :     -1396.3143918595
    0: -1, 1: -1 :     -1396.3143918481
    2: -1        :     -1396.3143919283
    3: -1        :     -1396.3143919279

-------------------------------------------------------------


  ==> Harmonic Vibrational Analysis <==

  non-mass-weighted Hessian:       Symmetric? True   Hermitian? True   Lin Dep Dim?  5 (0)
  projection of translations (True) and rotations (True) removed 5 degrees of freedom (5)
  total projector:                 Symmetric? True   Hermitian? True   Lin Dep Dim?  5 (5)
  mass-weighted Hessian:           Symmetric? True   Hermitian? True   Lin Dep Dim?  5 (0)
  pre-proj  low-frequency mode:    0.0000i [cm^-1]
  pre-proj  low-frequency mode:    0.0000i [cm^-1]
  pre-proj  low-frequency mode:    0.0000i [cm^-1]
  pre-proj  low-frequency mode:    0.0000i [cm^-1]
  pre-proj  low-frequency mode:    0.0000  [cm^-1]
  pre-proj  low-frequency mode:    0.0000  [cm^-1]
  pre-proj  low-frequency mode:    0.0000  [cm^-1]
  pre-proj  all modes:['79.2848i' '73.5581i' '0.0000i' '0.0000i' '0.0000' '0.0000' '0.0000'
 '204.4612' '644.4666']
  projected mass-weighted Hessian: Symmetric? True   Hermitian? True   Lin Dep Dim?  5 (5)
  post-proj low-frequency mode:   79.2848i [cm^-1] (V)
  post-proj low-frequency mode:   73.5581i [cm^-1] (V)
  post-proj low-frequency mode:    0.0000i [cm^-1] (TR)
  post-proj low-frequency mode:    0.0000  [cm^-1] (TR)
  post-proj low-frequency mode:    0.0000  [cm^-1] (TR)
  post-proj low-frequency mode:    0.0000  [cm^-1] (TR)
  post-proj low-frequency mode:    0.0000  [cm^-1] (TR)
  post-proj  all modes:['79.2848i' '73.5581i' '0.0000i' '0.0000' '0.0000' '0.0000' '0.0000'
 '204.4612' '644.4666']

  Vibration                       1                   2                   8           
  Freq [cm^-1]                 79.2848i            73.5581i            204.4612       
  Irrep                           B1                  B2                  A1          
  Reduced mass [u]             32.5439             32.5439             35.9609        
  Force const [mDyne/A]        -0.1205             -0.1037              0.8857        
  Turning point v=0 [a0]        0.0000              0.0000              0.1280        
  RMS dev v=0 [a0 u^1/2]        0.0000              0.0000              0.5426        
  Char temp [K]                 0.0000              0.0000             294.1741       
  ----------------------------------------------------------------------------------
      1   S                0.83  0.00  0.00   -0.00  0.83  0.00   -0.00  0.00 -0.41   
      2   S               -0.48  0.00  0.00   -0.00 -0.48  0.00    0.00 -0.00 -0.51   
      3   K               -0.29 -0.00  0.00   -0.00 -0.29  0.00   -0.00 -0.00  0.76   

  Vibration                       9           
  Freq [cm^-1]                 644.4666       
  Irrep                           A1          
  Reduced mass [u]             31.9906        
  Force const [mDyne/A]         7.8284        
  Turning point v=0 [a0]        0.0764        
  RMS dev v=0 [a0 u^1/2]        0.3056        
  Char temp [K]                927.2440       
  ----------------------------------------------------------------------------------
      1   S               -0.00 -0.00  0.74   
      2   S                0.00  0.00 -0.67   
      3   K               -0.00  0.00 -0.05   

  ==> Thermochemistry Components <==

  Entropy, S
    Electronic S            1.377 [cal/(mol K)]        5.763 [J/(mol K)]       0.00219507 [mEh/K] (multiplicity = 2)
    Translational S        39.803 [cal/(mol K)]      166.538 [J/(mol K)]       0.06343081 [mEh/K] (mol. weight = 102.9078 [u], P = 101325.00 [Pa])
    Rotational S           18.860 [cal/(mol K)]       78.908 [J/(mol K)]       0.03005459 [mEh/K] (symmetry no. = 1)
    Vibrational S           2.472 [cal/(mol K)]       10.342 [J/(mol K)]       0.00393900 [mEh/K]
  Total S                  62.512 [cal/(mol K)]      261.551 [J/(mol K)]       0.09961945 [mEh/K]
  Correction S              0.000 [cal/(mol K)]        0.000 [J/(mol K)]       0.00000000 [mEh/K]

  Constant volume heat capacity, Cv
    Electronic Cv           0.000 [cal/(mol K)]        0.000 [J/(mol K)]       0.00000000 [mEh/K]
    Translational Cv        2.981 [cal/(mol K)]       12.472 [J/(mol K)]       0.00475022 [mEh/K]
    Rotational Cv           1.987 [cal/(mol K)]        8.314 [J/(mol K)]       0.00316681 [mEh/K]
    Vibrational Cv          2.773 [cal/(mol K)]       11.601 [J/(mol K)]       0.00441858 [mEh/K]
  Total Cv                  7.741 [cal/(mol K)]       32.387 [J/(mol K)]       0.01233561 [mEh/K]
  Correction Cv             0.000 [cal/(mol K)]        0.000 [J/(mol K)]       0.00000000 [mEh/K]

  Constant pressure heat capacity, Cp
    Electronic Cp           0.000 [cal/(mol K)]        0.000 [J/(mol K)]       0.00000000 [mEh/K]
    Translational Cp        4.968 [cal/(mol K)]       20.786 [J/(mol K)]       0.00791703 [mEh/K]
    Rotational Cp           1.987 [cal/(mol K)]        8.314 [J/(mol K)]       0.00316681 [mEh/K]
    Vibrational Cp          2.773 [cal/(mol K)]       11.601 [J/(mol K)]       0.00441858 [mEh/K]
  Total Cp                  9.728 [cal/(mol K)]       40.702 [J/(mol K)]       0.01550242 [mEh/K]
  Correction Cp             0.000 [cal/(mol K)]        0.000 [J/(mol K)]       0.00000000 [mEh/K]

  ==> Thermochemistry Energy Analysis <==

  Raw electronic energy, E0
  Total E0, Electronic energy at well bottom at 0 [K]                -1396.31439193 [Eh]

  Zero-point energy, ZPE_vib = Sum_i nu_i / 2
    Electronic ZPE          0.000 [kcal/mol]        0.000 [kJ/mol]       0.00000000 [Eh]
    Translational ZPE       0.000 [kcal/mol]        0.000 [kJ/mol]       0.00000000 [Eh]
    Rotational ZPE          0.000 [kcal/mol]        0.000 [kJ/mol]       0.00000000 [Eh]
    Vibrational ZPE         1.214 [kcal/mol]        5.078 [kJ/mol]       0.00193400 [Eh]         424.464 [cm^-1]
  Correction ZPE            1.214 [kcal/mol]        5.078 [kJ/mol]       0.00193400 [Eh]         424.464 [cm^-1]
  Total ZPE, Electronic energy at 0 [K]                              -1396.31245793 [Eh]

  Thermal Energy, E (includes ZPE)
    Electronic E            0.000 [kcal/mol]        0.000 [kJ/mol]       0.00000000 [Eh]
    Translational E         0.889 [kcal/mol]        3.718 [kJ/mol]       0.00141628 [Eh]
    Rotational E            0.592 [kcal/mol]        2.479 [kJ/mol]       0.00094418 [Eh]
    Vibrational E           1.647 [kcal/mol]        6.892 [kJ/mol]       0.00262485 [Eh]
  Correction E              3.128 [kcal/mol]       13.089 [kJ/mol]       0.00498531 [Eh]
  Total E, Electronic energy at  298.15 [K]                          -1396.30940661 [Eh]

  Enthalpy, H_trans = E_trans + k_B * T
    Electronic H            0.000 [kcal/mol]        0.000 [kJ/mol]       0.00000000 [Eh]
    Translational H         1.481 [kcal/mol]        6.197 [kJ/mol]       0.00236046 [Eh]
    Rotational H            0.592 [kcal/mol]        2.479 [kJ/mol]       0.00094418 [Eh]
    Vibrational H           1.647 [kcal/mol]        6.892 [kJ/mol]       0.00262485 [Eh]
  Correction H              3.721 [kcal/mol]       15.568 [kJ/mol]       0.00592950 [Eh]
  Total H, Enthalpy at  298.15 [K]                                   -1396.30846243 [Eh]

  Gibbs free energy, G = H - T * S
    Electronic G           -0.411 [kcal/mol]       -1.718 [kJ/mol]      -0.00065446 [Eh]
    Translational G       -10.386 [kcal/mol]      -43.456 [kJ/mol]      -0.01655143 [Eh]
    Rotational G           -5.030 [kcal/mol]      -21.048 [kJ/mol]      -0.00801659 [Eh]
    Vibrational G           0.910 [kcal/mol]        3.808 [kJ/mol]       0.00145044 [Eh]
  Correction G            -14.917 [kcal/mol]      -62.413 [kJ/mol]      -0.02377204 [Eh]
  Total G, Free enthalpy at  298.15 [K]                              -1396.33816397 [Eh]

    Psi4 stopped on: Monday, 01 March 2021 01:02PM
    Psi4 wall time for execution: 2:27:42.14

*** Psi4 exiting successfully. Buy a developer a beer!
