
    -----------------------------------------------------------------------
          Psi4: An Open-Source Ab Initio Electronic Structure Package
                               Psi4 1.4a2.dev191 

                         Git: Rev {master} 0ab5346 


    R. M. Parrish, L. A. Burns, D. G. A. Smith, A. C. Simmonett,
    A. E. DePrince III, E. G. Hohenstein, U. Bozkaya, A. Yu. Sokolov,
    R. Di Remigio, R. M. Richard, J. F. Gonthier, A. M. James,
    H. R. McAlexander, A. Kumar, M. Saitow, X. Wang, B. P. Pritchard,
    P. Verma, H. F. Schaefer III, K. Patkowski, R. A. King, E. F. Valeev,
    F. A. Evangelista, J. M. Turney, T. D. Crawford, and C. D. Sherrill,
    J. Chem. Theory Comput. 13(7) pp 3185--3197 (2017).
    (doi: 10.1021/acs.jctc.7b00174)


                         Additional Contributions by
    P. Kraus, H. Kruse, M. H. Lechner, M. C. Schieber, R. A. Shaw,
    A. Alenaizan, R. Galvelis, Z. L. Glick, S. Lehtola, and J. P. Misiewicz

    -----------------------------------------------------------------------


    Psi4 started on: Wednesday, 10 February 2021 11:00AM

    Process ID: 236739
    Host:       c5-12.compute.lan
    PSIDATADIR: /apps/gb/PSI4/1.4.0/share/psi4
    Memory:     500.0 MiB
    Threads:    1
    
  ==> Input File <==

--------------------------------------------------------------------------
memory 16 GB

molecule  {
0 1
S
S 1 r1
S 1 r2 2 a1
S 2 r3 1 a2 3 d1
r1 = 2.051
r2 = 2.024
r3 = 2.024
a1 = 105.1
a2 = 105.1
d1 = 180.0
}

set {
reference uks
basis aug-cc-pvtz
g_convergence gau_verytight
dft_spherical_points 590
dft_radial_points 99
}

optimize('wb97x-d')
frequencies('wb97x-d')

--------------------------------------------------------------------------

  Memory set to  14.901 GiB by Python driver.
gradient() will perform analytic gradient computation.

*** tstart() called on c5-12.compute.lan
*** at Wed Feb 10 11:00:17 2021

   => Loading Basis Set <=

    Name: AUG-CC-PVTZ
    Role: ORBITAL
    Keyword: BASIS
    atoms 1-4 entry S          line   906 file /apps/gb/PSI4/1.4.0/share/psi4/basis/aug-cc-pvtz.gbs 

   => WB97X-D: Empirical Dispersion <=

    Chai and Head-Gordon Dispersion Correction
    Chai, J.-D.; Head-Gordon, M. (2010), J. Chem. Phys., 132: 6615-6620

        s6 =       1.000000


         ---------------------------------------------------------
                                   SCF
               by Justin Turney, Rob Parrish, Andy Simmonett
                          and Daniel G. A. Smith
                              UKS Reference
                        1 Threads,  15258 MiB Core
         ---------------------------------------------------------

  ==> Geometry <==

    Molecular point group: c2h
    Full point group: C2h

    Geometry (in Angstrom), charge = 0, multiplicity = 1:

       Center              X                  Y                   Z               Mass       
    ------------   -----------------  -----------------  -----------------  -----------------
         S            0.000000000000     1.025500000000     0.000000000000    31.972071174400
         S            0.000000000000    -1.025500000000     0.000000000000    31.972071174400
         S           -1.954116604900     1.552761125493     0.000000000000    31.972071174400
         S            1.954116604900    -1.552761125493     0.000000000000    31.972071174400

  Running in c2h symmetry.

  Rotational constants: A =      0.43854  B =      0.03946  C =      0.03621 [cm^-1]
  Rotational constants: A =  13147.07888  B =   1183.12687  C =   1085.44584 [MHz]
  Nuclear repulsion =  310.800725288192893

  Charge       = 0
  Multiplicity = 1
  Electrons    = 64
  Nalpha       = 32
  Nbeta        = 32

  ==> Algorithm <==

  SCF Algorithm Type is DF.
  DIIS enabled.
  MOM disabled.
  Fractional occupation disabled.
  Guess Type is SAD.
  Energy threshold   = 1.00e-08
  Density threshold  = 1.00e-08
  Integral threshold = 0.00e+00

  ==> Primary Basis <==

  Basis Set: AUG-CC-PVTZ
    Blend: AUG-CC-PVTZ
    Number of shells: 64
    Number of basis function: 200
    Number of Cartesian functions: 236
    Spherical Harmonics?: true
    Max angular momentum: 3

  ==> DFT Potential <==

   => Composite Functional: WB97X-D <= 

    wB97X-D Hyb-GGA Exchange-Correlation Functional

    J.-D. Chai and M. Head-Gordon, Phys. Chem. Chem. Phys. 10, 6615 (2008)

    Deriv               =              1
    GGA                 =           TRUE
    Meta                =          FALSE

    Exchange Hybrid     =           TRUE
    MP2 Hybrid          =          FALSE

   => Exchange-Correlation Functionals <=

    1.0000   wB97D range-separated functional

   => Exact (HF) Exchange <=

    0.7780            HF,LR [omega = 0.2000]
    0.2220               HF 

   => Molecular Quadrature <=

    Radial Scheme          =       TREUTLER
    Pruning Scheme         =           NONE
    Nuclear Scheme         =       TREUTLER

    BS radius alpha        =              1
    Pruning alpha          =              1
    Radial Points          =             99
    Spherical Points       =            590
    Total Points           =         225782
    Total Blocks           =           1817
    Max Points             =            256
    Max Functions          =            200
    Weights Tolerance      =       1.00E-15

   => Loading Basis Set <=

    Name: (AUG-CC-PVTZ AUX)
    Role: JKFIT
    Keyword: DF_BASIS_SCF
    atoms 1-4 entry S          line   730 file /apps/gb/PSI4/1.4.0/share/psi4/basis/aug-cc-pvtz-jkfit.gbs 

  ==> Pre-Iterations <==

   -------------------------------------------------------
    Irrep   Nso     Nmo     Nalpha   Nbeta   Ndocc  Nsocc
   -------------------------------------------------------
     Ag        66      66       0       0       0       0
     Bg        34      34       0       0       0       0
     Au        34      34       0       0       0       0
     Bu        66      66       0       0       0       0
   -------------------------------------------------------
    Total     200     200      32      32      32       0
   -------------------------------------------------------

  ==> Integral Setup <==

  ==> DiskDFJK: Density-Fitted J/K Matrices <==

    J tasked:                  Yes
    K tasked:                  Yes
    wK tasked:                 Yes
    Omega:               2.000E-01
    OpenMP threads:              1
    Integrals threads:           1
    Memory [MiB]:            10314
    Algorithm:                Core
    Integral Cache:           NONE
    Schwarz Cutoff:          1E-12
    Fitting Condition:       1E-10

   => Auxiliary Basis Set <=

  Basis Set: (AUG-CC-PVTZ AUX)
    Blend: AUG-CC-PVTZ-JKFIT
    Number of shells: 168
    Number of basis function: 584
    Number of Cartesian functions: 720
    Spherical Harmonics?: true
    Max angular momentum: 4

  Cached 100.0% of DFT collocation blocks in 1.103 [GiB].

  Minimum eigenvalue in the overlap matrix is 2.1178000566E-04.
  Using Symmetric Orthogonalization.

  SCF Guess: Superposition of Atomic Densities via on-the-fly atomic UHF.

  ==> Iterations <==

                           Total Energy        Delta E     RMS |[F,P]|

   @DF-UKS iter SAD: -1592.36496285304429   -1.59236e+03   0.00000e+00 
   @DF-UKS iter   1: -1592.65884331927350   -2.93880e-01   4.65276e-03 DIIS
   @DF-UKS iter   2: -1592.55212275222721    1.06721e-01   5.92112e-03 DIIS
   @DF-UKS iter   3: -1592.77142278760812   -2.19300e-01   8.96825e-04 DIIS
   @DF-UKS iter   4: -1592.77578433607050   -4.36155e-03   9.72866e-05 DIIS
   @DF-UKS iter   5: -1592.77592518831761   -1.40852e-04   3.20540e-05 DIIS
   @DF-UKS iter   6: -1592.77594063167453   -1.54434e-05   1.00654e-05 DIIS
   @DF-UKS iter   7: -1592.77594473126373   -4.09959e-06   3.24607e-06 DIIS
   @DF-UKS iter   8: -1592.77594518654814   -4.55284e-07   1.01750e-06 DIIS
   @DF-UKS iter   9: -1592.77594520774210   -2.11940e-08   3.75828e-07 DIIS
   @DF-UKS iter  10: -1592.77594521057836   -2.83626e-09   9.78193e-08 DIIS
   @DF-UKS iter  11: -1592.77594521093033   -3.51974e-10   3.98788e-08 DIIS
   @DF-UKS iter  12: -1592.77594521096398   -3.36513e-11   5.11267e-09 DIIS
  Energy and wave function converged.


  ==> Post-Iterations <==

   @Spin Contamination Metric:  -2.131628207E-14
   @S^2 Expected:                0.000000000E+00
   @S^2 Observed:               -2.131628207E-14
   @S   Expected:                0.000000000E+00
   @S   Observed:                0.000000000E+00

    Orbital Energies [Eh]
    ---------------------

    Alpha Occupied:                                                       

       1Bu   -89.184769     1Ag   -89.184766     2Bu   -89.084052  
       2Ag   -89.084051     3Ag    -8.185285     3Bu    -8.185195  
       4Ag    -8.090095     4Bu    -8.090093     5Ag    -6.133791  
       5Bu    -6.133539     1Au    -6.129974     1Bg    -6.129955  
       6Ag    -6.129595     6Bu    -6.129566     7Ag    -6.041286  
       7Bu    -6.041285     2Au    -6.034560     2Bg    -6.034560  
       8Ag    -6.030823     8Bu    -6.030823     9Ag    -0.988641  
       9Bu    -0.894102    10Ag    -0.772082    10Bu    -0.701750  
      11Ag    -0.539405    11Bu    -0.512030     3Au    -0.498017  
      12Ag    -0.445496     3Bg    -0.415367    12Bu    -0.368152  
      13Ag    -0.336445     4Au    -0.305563  

    Alpha Virtual:                                                        

       4Bg    -0.131060    13Bu    -0.011650    14Bu     0.000846  
      14Ag     0.028545    15Bu     0.063968    16Bu     0.070739  
      15Ag     0.071438     5Au     0.085026    16Ag     0.089488  
      17Ag     0.101349    18Ag     0.106577     5Bg     0.107714  
       6Bg     0.110673    17Bu     0.122563    18Bu     0.134940  
       6Au     0.136754    19Ag     0.164625     7Au     0.175492  
      19Bu     0.182560     7Bg     0.193634    20Ag     0.202530  
      20Bu     0.211922    21Bu     0.232279    21Ag     0.251367  
      22Bu     0.264609     8Au     0.267666     8Bg     0.268266  
      22Ag     0.273132    23Bu     0.289294    23Ag     0.295414  
       9Au     0.298281    24Ag     0.342559     9Bg     0.351378  
      24Bu     0.358244    25Ag     0.367628    10Au     0.381552  
      10Bg     0.383692    25Bu     0.384259    26Bu     0.420558  
      26Ag     0.436740    11Au     0.447101    11Bg     0.512153  
      27Bu     0.525671    27Ag     0.530371    12Au     0.531877  
      12Bg     0.547281    28Bu     0.548789    28Ag     0.552626  
      13Au     0.558675    29Ag     0.564896    29Bu     0.571521  
      14Au     0.575207    30Ag     0.581242    31Ag     0.594451  
      30Bu     0.610065    13Bg     0.619897    31Bu     0.622568  
      32Ag     0.635443    15Au     0.649223    14Bg     0.655456  
      33Ag     0.658823    32Bu     0.659999    34Ag     0.664975  
      33Bu     0.676660    15Bg     0.691110    16Bg     0.715633  
      35Ag     0.722829    16Au     0.734630    34Bu     0.749826  
      17Bg     0.765683    36Ag     0.773363    17Au     0.778780  
      35Bu     0.787283    37Ag     0.808404    36Bu     0.811143  
      18Bg     0.829351    38Ag     0.829579    37Bu     0.840658  
      18Au     0.898033    38Bu     0.919311    39Ag     0.976888  
      39Bu     0.999642    19Au     1.001490    19Bg     1.007035  
      20Au     1.009571    40Ag     1.036428    40Bu     1.041818  
      20Bg     1.097435    41Ag     1.120635    41Bu     1.123299  
      42Ag     1.145762    21Au     1.158258    42Bu     1.162388  
      21Bg     1.181800    22Au     1.211264    43Bu     1.214657  
      22Bg     1.228017    43Ag     1.238914    44Ag     1.288286  
      44Bu     1.356246    45Ag     1.367680    45Bu     1.409029  
      46Ag     1.499892    46Bu     1.528527    23Au     1.789305  
      47Ag     1.796680    23Bg     1.819125    47Bu     1.841956  
      24Bg     1.849020    48Bu     1.853517    48Ag     1.856264  
      24Au     1.867308    25Au     1.884674    49Bu     1.888520  
      50Bu     1.893534    49Ag     1.901735    25Bg     1.914611  
      26Au     1.964245    50Ag     1.976769    27Au     1.982800  
      51Bu     1.992444    26Bg     2.015494    51Ag     2.015756  
      52Bu     2.031575    28Au     2.032787    27Bg     2.036902  
      52Ag     2.051656    28Bg     2.054265    29Au     2.059933  
      53Ag     2.088173    53Bu     2.119370    54Ag     2.146117  
      30Au     2.155121    54Bu     2.176761    55Ag     2.178355  
      29Bg     2.185154    55Bu     2.186977    56Bu     2.210513  
      31Au     2.233543    30Bg     2.236581    31Bg     2.258916  
      57Bu     2.276510    56Ag     2.280140    57Ag     2.310381  
      32Au     2.313150    33Au     2.321461    58Ag     2.321847  
      32Bg     2.335969    58Bu     2.338510    59Bu     2.394083  
      59Ag     2.412633    60Bu     2.427117    60Ag     2.498205  
      61Ag     2.516944    61Bu     2.519604    33Bg     2.529380  
      34Au     2.572194    34Bg     2.596029    62Ag     2.636458  
      62Bu     2.698342    63Ag     2.746267    63Bu     3.635568  
      64Ag     3.664755    64Bu     3.699434    65Ag     4.798407  
      65Bu     5.249624    66Ag     5.623064    66Bu     5.797853  

    Beta Occupied:                                                        

       1Bu   -89.184769     1Ag   -89.184766     2Bu   -89.084052  
       2Ag   -89.084051     3Ag    -8.185285     3Bu    -8.185195  
       4Ag    -8.090095     4Bu    -8.090093     5Ag    -6.133791  
       5Bu    -6.133539     1Au    -6.129974     1Bg    -6.129955  
       6Ag    -6.129595     6Bu    -6.129566     7Ag    -6.041286  
       7Bu    -6.041285     2Au    -6.034560     2Bg    -6.034560  
       8Ag    -6.030823     8Bu    -6.030823     9Ag    -0.988641  
       9Bu    -0.894102    10Ag    -0.772082    10Bu    -0.701750  
      11Ag    -0.539405    11Bu    -0.512030     3Au    -0.498017  
      12Ag    -0.445496     3Bg    -0.415367    12Bu    -0.368152  
      13Ag    -0.336445     4Au    -0.305563  

    Beta Virtual:                                                         

       4Bg    -0.131060    13Bu    -0.011650    14Bu     0.000846  
      14Ag     0.028545    15Bu     0.063968    16Bu     0.070739  
      15Ag     0.071438     5Au     0.085026    16Ag     0.089488  
      17Ag     0.101349    18Ag     0.106577     5Bg     0.107714  
       6Bg     0.110673    17Bu     0.122563    18Bu     0.134940  
       6Au     0.136754    19Ag     0.164625     7Au     0.175492  
      19Bu     0.182560     7Bg     0.193634    20Ag     0.202530  
      20Bu     0.211922    21Bu     0.232279    21Ag     0.251367  
      22Bu     0.264609     8Au     0.267666     8Bg     0.268266  
      22Ag     0.273132    23Bu     0.289294    23Ag     0.295414  
       9Au     0.298281    24Ag     0.342559     9Bg     0.351378  
      24Bu     0.358244    25Ag     0.367628    10Au     0.381552  
      10Bg     0.383692    25Bu     0.384259    26Bu     0.420558  
      26Ag     0.436740    11Au     0.447101    11Bg     0.512153  
      27Bu     0.525671    27Ag     0.530371    12Au     0.531877  
      12Bg     0.547281    28Bu     0.548789    28Ag     0.552626  
      13Au     0.558675    29Ag     0.564896    29Bu     0.571521  
      14Au     0.575207    30Ag     0.581242    31Ag     0.594451  
      30Bu     0.610065    13Bg     0.619897    31Bu     0.622568  
      32Ag     0.635443    15Au     0.649223    14Bg     0.655456  
      33Ag     0.658823    32Bu     0.659999    34Ag     0.664975  
      33Bu     0.676660    15Bg     0.691110    16Bg     0.715633  
      35Ag     0.722829    16Au     0.734630    34Bu     0.749826  
      17Bg     0.765683    36Ag     0.773363    17Au     0.778780  
      35Bu     0.787283    37Ag     0.808404    36Bu     0.811143  
      18Bg     0.829351    38Ag     0.829579    37Bu     0.840658  
      18Au     0.898033    38Bu     0.919311    39Ag     0.976888  
      39Bu     0.999642    19Au     1.001490    19Bg     1.007035  
      20Au     1.009571    40Ag     1.036428    40Bu     1.041818  
      20Bg     1.097435    41Ag     1.120635    41Bu     1.123299  
      42Ag     1.145762    21Au     1.158258    42Bu     1.162388  
      21Bg     1.181800    22Au     1.211264    43Bu     1.214657  
      22Bg     1.228017    43Ag     1.238914    44Ag     1.288286  
      44Bu     1.356246    45Ag     1.367680    45Bu     1.409029  
      46Ag     1.499892    46Bu     1.528527    23Au     1.789305  
      47Ag     1.796680    23Bg     1.819125    47Bu     1.841956  
      24Bg     1.849020    48Bu     1.853517    48Ag     1.856264  
      24Au     1.867308    25Au     1.884674    49Bu     1.888520  
      50Bu     1.893534    49Ag     1.901735    25Bg     1.914611  
      26Au     1.964245    50Ag     1.976769    27Au     1.982800  
      51Bu     1.992444    26Bg     2.015494    51Ag     2.015756  
      52Bu     2.031575    28Au     2.032787    27Bg     2.036902  
      52Ag     2.051656    28Bg     2.054265    29Au     2.059933  
      53Ag     2.088173    53Bu     2.119370    54Ag     2.146117  
      30Au     2.155121    54Bu     2.176761    55Ag     2.178355  
      29Bg     2.185154    55Bu     2.186977    56Bu     2.210513  
      31Au     2.233543    30Bg     2.236581    31Bg     2.258916  
      57Bu     2.276510    56Ag     2.280140    57Ag     2.310381  
      32Au     2.313150    33Au     2.321461    58Ag     2.321847  
      32Bg     2.335969    58Bu     2.338510    59Bu     2.394083  
      59Ag     2.412633    60Bu     2.427117    60Ag     2.498205  
      61Ag     2.516944    61Bu     2.519604    33Bg     2.529380  
      34Au     2.572194    34Bg     2.596029    62Ag     2.636458  
      62Bu     2.698342    63Ag     2.746267    63Bu     3.635568  
      64Ag     3.664755    64Bu     3.699434    65Ag     4.798407  
      65Bu     5.249624    66Ag     5.623064    66Bu     5.797853  

    Final Occupation by Irrep:
             Ag    Bg    Au    Bu 
    DOCC [    13,    3,    4,   12 ]
    SOCC [     0,    0,    0,    0 ]

  @DF-UKS Final Energy: -1592.77594521096398

   => Energetics <=

    Nuclear Repulsion Energy =            310.8007252881928935
    One-Electron Energy =               -2817.8308428316527170
    Two-Electron Energy =                 989.2126053151034739
    DFT Exchange-Correlation Energy =     -74.9579200642419039
    Empirical Dispersion Energy =          -0.0005129183655409
    VV10 Nonlocal Energy =                  0.0000000000000000
    Total Energy =                      -1592.7759452109637550

  UHF NO Occupations:
  HONO-2 :   11 Ag 2.0000000
  HONO-1 :   12 Ag 2.0000000
  HONO-0 :   13 Ag 2.0000000
  LUNO+0 :   13 Bu 0.0000000
  LUNO+1 :   14 Ag 0.0000000
  LUNO+2 :   14 Bu 0.0000000
  LUNO+3 :   15 Ag 0.0000000


Computation Completed


Properties will be evaluated at   0.000000,   0.000000,   0.000000 [a0]

Properties computed using the SCF density matrix

  Nuclear Dipole Moment: [e a0]
     X:     0.0000      Y:     0.0000      Z:     0.0000

  Electronic Dipole Moment: [e a0]
     X:     0.0000      Y:     0.0000      Z:     0.0000

  Dipole Moment: [e a0]
     X:     0.0000      Y:     0.0000      Z:     0.0000     Total:     0.0000

  Dipole Moment: [D]
     X:     0.0000      Y:     0.0000      Z:     0.0000     Total:     0.0000


*** tstop() called on c5-12.compute.lan at Wed Feb 10 11:01:33 2021
Module time:
	user time   =      74.26 seconds =       1.24 minutes
	system time =       1.22 seconds =       0.02 minutes
	total time  =         76 seconds =       1.27 minutes
Total time:
	user time   =      74.26 seconds =       1.24 minutes
	system time =       1.22 seconds =       0.02 minutes
	total time  =         76 seconds =       1.27 minutes

*** tstart() called on c5-12.compute.lan
*** at Wed Feb 10 11:01:33 2021


         ------------------------------------------------------------
                                   SCF GRAD                          
                          Rob Parrish, Justin Turney,                
                       Andy Simmonett, and Alex Sokolov              
         ------------------------------------------------------------

  ==> Geometry <==

    Molecular point group: c2h
    Full point group: C2h

    Geometry (in Angstrom), charge = 0, multiplicity = 1:

       Center              X                  Y                   Z               Mass       
    ------------   -----------------  -----------------  -----------------  -----------------
         S            0.000000000000     1.025500000000     0.000000000000    31.972071174400
         S            0.000000000000    -1.025500000000     0.000000000000    31.972071174400
         S           -1.954116604900     1.552761125493     0.000000000000    31.972071174400
         S            1.954116604900    -1.552761125493     0.000000000000    31.972071174400

  Nuclear repulsion =  310.800725288192893

  ==> Basis Set <==

  Basis Set: AUG-CC-PVTZ
    Blend: AUG-CC-PVTZ
    Number of shells: 64
    Number of basis function: 200
    Number of Cartesian functions: 236
    Spherical Harmonics?: true
    Max angular momentum: 3

  ==> DFJKGrad: Density-Fitted SCF Gradients <==

    Gradient:                    1
    J tasked:                  Yes
    K tasked:                  Yes
    wK tasked:                 Yes
    Omega:               2.000E-01
    OpenMP threads:              1
    Integrals threads:           1
    Memory [MiB]:            11444
    Schwarz Cutoff:          0E+00
    Fitting Condition:       1E-10

   => Auxiliary Basis Set <=

  Basis Set: (AUG-CC-PVTZ AUX)
    Blend: AUG-CC-PVTZ-JKFIT
    Number of shells: 168
    Number of basis function: 584
    Number of Cartesian functions: 720
    Spherical Harmonics?: true
    Max angular momentum: 4

  ==> DFT Potential <==

   => Composite Functional: WB97X-D <= 

    wB97X-D Hyb-GGA Exchange-Correlation Functional

    J.-D. Chai and M. Head-Gordon, Phys. Chem. Chem. Phys. 10, 6615 (2008)

    Deriv               =              1
    GGA                 =           TRUE
    Meta                =          FALSE

    Exchange Hybrid     =           TRUE
    MP2 Hybrid          =          FALSE

   => Exchange-Correlation Functionals <=

    1.0000   wB97D range-separated functional

   => Exact (HF) Exchange <=

    0.7780            HF,LR [omega = 0.2000]
    0.2220               HF 

   => Molecular Quadrature <=

    Radial Scheme          =       TREUTLER
    Pruning Scheme         =           NONE
    Nuclear Scheme         =       TREUTLER

    BS radius alpha        =              1
    Pruning alpha          =              1
    Radial Points          =             99
    Spherical Points       =            590
    Total Points           =         225782
    Total Blocks           =           1817
    Max Points             =            256
    Max Functions          =            200
    Weights Tolerance      =       1.00E-15


  -Total Gradient:
     Atom            X                  Y                   Z
    ------   -----------------  -----------------  -----------------
       1        0.046792809300     0.009557861049     0.000000000000
       2       -0.046792809300    -0.009557861049     0.000000000000
       3       -0.037666931317     0.005380334128     0.000000000000
       4        0.037666931317    -0.005380334128     0.000000000000


*** tstop() called on c5-12.compute.lan at Wed Feb 10 11:02:01 2021
Module time:
	user time   =      27.75 seconds =       0.46 minutes
	system time =       0.25 seconds =       0.00 minutes
	total time  =         28 seconds =       0.47 minutes
Total time:
	user time   =     102.01 seconds =       1.70 minutes
	system time =       1.47 seconds =       0.02 minutes
	total time  =        104 seconds =       1.73 minutes

			-----------------------------------------
			 OPTKING 2.0: for geometry optimizations 
			  - R.A. King,  Bethel University        
			-----------------------------------------

	Internal coordinates to be generated automatically.
	Detected frag 1 with atoms:  1 2 3 4
	---Fragment 1 Bond Connectivity---
	 1 : 2 3
	 2 : 1 4
	 3 : 1
	 4 : 2

	---Fragment 1 Geometry and Gradient---
	 S           0.0000000000        1.9379141417        0.0000000000
	 S           0.0000000000       -1.9379141417        0.0000000000
	 S          -3.6927452005        2.9342932654        0.0000000000
	 S           3.6927452005       -2.9342932654        0.0000000000
	             0.0467928093        0.0095578610        0.0000000000
	            -0.0467928093       -0.0095578610        0.0000000000
	            -0.0376669313        0.0053803341        0.0000000000
	             0.0376669313       -0.0053803341        0.0000000000

	Previous optimization step data not found.  Starting new optimization.

	---Fragment 1 Intrafragment Coordinates---
	 - Coordinate -           - BOHR/RAD -       - ANG/DEG -
	 R(1,2)           =         3.875828	       2.051000
	 R(1,3)           =         3.824806	       2.024000
	 R(2,4)           =         3.824806	       2.024000
	 B(1,2,4)         =         1.834341	     105.100000
	 B(2,1,3)         =         1.834341	     105.100000
	 D(3,1,2,4)       =         3.141593	     180.000000

	Current energy   :     -1592.7759452110

	Generating empirical Hessian (Schlegel '84) for each fragment.
	Taking RFO optimization step.
	Going to follow RFO solution 1.
	Using RFO vector 1.
	Norm of target step-size    0.19359
	Projected energy change by RFO approximation:        -0.0149339643

	Back-transformation to cartesian coordinates...
	Successfully converged to displaced geometry.

	--- Internal Coordinate Step in ANG or DEG, aJ/ANG or AJ/DEG ---
	 ---------------------------------------------------------------------------
	   Coordinate                Previous        Force       Change         New 
	   ----------                --------       ------       ------       ------
	    1 R(1,2)          =      2.051000    -0.123045    -0.025895     2.025105
	    2 R(1,3)          =      2.024000    -0.311174    -0.060288     1.963712
	    3 R(2,4)          =      2.024000    -0.311174    -0.060288     1.963712
	    4 B(1,2,4)        =    105.100000     0.001345     3.869757   108.969757
	    5 B(2,1,3)        =    105.100000     0.001345     3.869757   108.969757
	    6 D(3,1,2,4)      =    180.000000     0.000000     0.000000   180.000000
	 ---------------------------------------------------------------------------
	Successfully symmetrized geometry.

  ==> Convergence Check <==

  Measures of convergence in internal coordinates in au.
  Criteria marked as inactive (o), active & met (*), and active & unmet ( ).
  --------------------------------------------------------------------------------------------- ~
   Step     Total Energy     Delta E     MAX Force     RMS Force      MAX Disp      RMS Disp    ~
  --------------------------------------------------------------------------------------------- ~
    Convergence Criteria             o    2.00e-06 *    1.00e-06 *    6.00e-06 *    4.00e-06 *  ~
  --------------------------------------------------------------------------------------------- ~
      1   -1592.77594521   -1.59e+03 o    3.78e-02      2.48e-02      1.14e-01      7.90e-02    ~
  ---------------------------------------------------------------------------------------------

	Writing optimization data to binary file.
	Structure for next step:
	Cartesian Geometry (in Angstrom)
	    S    -0.0478997546   1.0114189222   0.0000000000
	    S     0.0478997546  -1.0114189222   0.0000000000
	    S    -1.9330817047   1.5611961500   0.0000000000
	    S     1.9330817047  -1.5611961500   0.0000000000
			--------------------------
			 OPTKING Finished Execution 
			--------------------------

    Structure for next step:
    Molecular point group: c2h
    Full point group: C2h

    Geometry (in Angstrom), charge = 0, multiplicity = 1:

    S       
    S             1          r1
    S             1          r2      2          a1
    S             2          r3      1          a2      3          d1

    a1        =  108.9697567671
    a2        =  108.9697567671
    d1        = -180.0000000000
    r1        =    2.0251050646
    r2        =    1.9637123046
    r3        =    1.9637123046

gradient() will perform analytic gradient computation.

*** tstart() called on c5-12.compute.lan
*** at Wed Feb 10 11:02:01 2021

   => Loading Basis Set <=

    Name: AUG-CC-PVTZ
    Role: ORBITAL
    Keyword: BASIS
    atoms 1-4 entry S          line   906 file /apps/gb/PSI4/1.4.0/share/psi4/basis/aug-cc-pvtz.gbs 

   => WB97X-D: Empirical Dispersion <=

    Chai and Head-Gordon Dispersion Correction
    Chai, J.-D.; Head-Gordon, M. (2010), J. Chem. Phys., 132: 6615-6620

        s6 =       1.000000


         ---------------------------------------------------------
                                   SCF
               by Justin Turney, Rob Parrish, Andy Simmonett
                          and Daniel G. A. Smith
                              UKS Reference
                        1 Threads,  15258 MiB Core
         ---------------------------------------------------------

  ==> Geometry <==

    Molecular point group: c2h
    Full point group: C2h

    Geometry (in Angstrom), charge = 0, multiplicity = 1:

       Center              X                  Y                   Z               Mass       
    ------------   -----------------  -----------------  -----------------  -----------------
         S            0.000000000000     1.012552532309     0.000000000000    31.972071174400
         S            0.000000000000    -1.012552532309     0.000000000000    31.972071174400
         S           -1.857063664873     1.650894572294     0.000000000000    31.972071174400
         S            1.857063664873    -1.650894572294     0.000000000000    31.972071174400

  Running in c2h symmetry.

  Rotational constants: A =      0.49726  B =      0.03953  C =      0.03662 [cm^-1]
  Rotational constants: A =  14907.46049  B =   1185.06040  C =   1097.79202 [MHz]
  Nuclear repulsion =  315.571783905079712

  Charge       = 0
  Multiplicity = 1
  Electrons    = 64
  Nalpha       = 32
  Nbeta        = 32

  ==> Algorithm <==

  SCF Algorithm Type is DF.
  DIIS enabled.
  MOM disabled.
  Fractional occupation disabled.
  Guess Type is READ.
  Energy threshold   = 1.00e-08
  Density threshold  = 1.00e-08
  Integral threshold = 0.00e+00

  ==> Primary Basis <==

  Basis Set: AUG-CC-PVTZ
    Blend: AUG-CC-PVTZ
    Number of shells: 64
    Number of basis function: 200
    Number of Cartesian functions: 236
    Spherical Harmonics?: true
    Max angular momentum: 3

  ==> DFT Potential <==

   => Composite Functional: WB97X-D <= 

    wB97X-D Hyb-GGA Exchange-Correlation Functional

    J.-D. Chai and M. Head-Gordon, Phys. Chem. Chem. Phys. 10, 6615 (2008)

    Deriv               =              1
    GGA                 =           TRUE
    Meta                =          FALSE

    Exchange Hybrid     =           TRUE
    MP2 Hybrid          =          FALSE

   => Exchange-Correlation Functionals <=

    1.0000   wB97D range-separated functional

   => Exact (HF) Exchange <=

    0.7780            HF,LR [omega = 0.2000]
    0.2220               HF 

   => Molecular Quadrature <=

    Radial Scheme          =       TREUTLER
    Pruning Scheme         =           NONE
    Nuclear Scheme         =       TREUTLER

    BS radius alpha        =              1
    Pruning alpha          =              1
    Radial Points          =             99
    Spherical Points       =            590
    Total Points           =         225670
    Total Blocks           =           1832
    Max Points             =            256
    Max Functions          =            200
    Weights Tolerance      =       1.00E-15

   => Loading Basis Set <=

    Name: (AUG-CC-PVTZ AUX)
    Role: JKFIT
    Keyword: DF_BASIS_SCF
    atoms 1-4 entry S          line   730 file /apps/gb/PSI4/1.4.0/share/psi4/basis/aug-cc-pvtz-jkfit.gbs 

   => Loading Basis Set <=

    Name: AUG-CC-PVTZ
    Role: ORBITAL
    Keyword: BASIS
    atoms 1-4 entry S          line   906 file /apps/gb/PSI4/1.4.0/share/psi4/basis/aug-cc-pvtz.gbs 

  Reading orbitals from file 180, no projection.

  ==> Pre-Iterations <==

   -------------------------------------------------------
    Irrep   Nso     Nmo     Nalpha   Nbeta   Ndocc  Nsocc
   -------------------------------------------------------
     Ag        66      66       0       0       0       0
     Bg        34      34       0       0       0       0
     Au        34      34       0       0       0       0
     Bu        66      66       0       0       0       0
   -------------------------------------------------------
    Total     200     200      32      32      32       0
   -------------------------------------------------------

  ==> Integral Setup <==

  ==> DiskDFJK: Density-Fitted J/K Matrices <==

    J tasked:                  Yes
    K tasked:                  Yes
    wK tasked:                 Yes
    Omega:               2.000E-01
    OpenMP threads:              1
    Integrals threads:           1
    Memory [MiB]:            10314
    Algorithm:                Core
    Integral Cache:           NONE
    Schwarz Cutoff:          1E-12
    Fitting Condition:       1E-10

   => Auxiliary Basis Set <=

  Basis Set: (AUG-CC-PVTZ AUX)
    Blend: AUG-CC-PVTZ-JKFIT
    Number of shells: 168
    Number of basis function: 584
    Number of Cartesian functions: 720
    Spherical Harmonics?: true
    Max angular momentum: 4

  Cached 100.0% of DFT collocation blocks in 1.103 [GiB].

  Minimum eigenvalue in the overlap matrix is 1.8327646472E-04.
  Using Symmetric Orthogonalization.

  SCF Guess: Orbitals guess was supplied from a previous computation.

  ==> Iterations <==

                           Total Energy        Delta E     RMS |[F,P]|

   @DF-UKS iter   0: -1592.83121775957920   -1.59283e+03   2.68347e-03 
   @DF-UKS iter   1: -1592.78323130807166    4.79865e-02   3.11471e-04 DIIS
   @DF-UKS iter   2: -1592.78379837194007   -5.67064e-04   2.65648e-04 DIIS
   @DF-UKS iter   3: -1592.78423085579084   -4.32484e-04   9.13206e-05 DIIS
   @DF-UKS iter   4: -1592.78429864380564   -6.77880e-05   2.75706e-05 DIIS
   @DF-UKS iter   5: -1592.78431513341911   -1.64896e-05   6.80007e-06 DIIS
   @DF-UKS iter   6: -1592.78431641388283   -1.28046e-06   2.04660e-06 DIIS
   @DF-UKS iter   7: -1592.78431656256976   -1.48687e-07   3.88432e-07 DIIS
   @DF-UKS iter   8: -1592.78431656544171   -2.87196e-09   8.12846e-08 DIIS
   @DF-UKS iter   9: -1592.78431656563066   -1.88948e-10   3.08446e-08 DIIS
   @DF-UKS iter  10: -1592.78431656565635   -2.56932e-11   9.30614e-09 DIIS
  Energy and wave function converged.


  ==> Post-Iterations <==

   @Spin Contamination Metric:   8.526512829E-14
   @S^2 Expected:                0.000000000E+00
   @S^2 Observed:                8.526512829E-14
   @S   Expected:                0.000000000E+00
   @S   Observed:                0.000000000E+00

    Orbital Energies [Eh]
    ---------------------

    Alpha Occupied:                                                       

       1Bu   -89.179951     1Ag   -89.179950     2Bu   -89.081848  
       2Ag   -89.081847     3Ag    -8.181677     3Bu    -8.181575  
       4Ag    -8.089204     4Bu    -8.089202     5Ag    -6.130127  
       5Bu    -6.129831     1Au    -6.126525     1Bg    -6.126502  
       6Ag    -6.125665     6Bu    -6.125631     7Ag    -6.040059  
       7Bu    -6.040059     2Au    -6.033563     2Bg    -6.033563  
       8Ag    -6.030125     8Bu    -6.030125     9Ag    -0.998946  
       9Bu    -0.909474    10Ag    -0.778310    10Bu    -0.692154  
      11Ag    -0.543563    11Bu    -0.515056     3Au    -0.503978  
      12Ag    -0.446655     3Bg    -0.422861    12Bu    -0.373153  
      13Ag    -0.334502     4Au    -0.305503  

    Alpha Virtual:                                                        

       4Bg    -0.121769    13Bu    -0.005338    14Bu     0.013475  
      14Ag     0.043137    15Bu     0.063864    15Ag     0.071885  
      16Bu     0.073027     5Au     0.084502    16Ag     0.093402  
      17Ag     0.102963    18Ag     0.106618     5Bg     0.107779  
       6Bg     0.110163    17Bu     0.121211    18Bu     0.135775  
       6Au     0.136606    19Ag     0.164871     7Au     0.175912  
      19Bu     0.183180     7Bg     0.194906    20Ag     0.202744  
      20Bu     0.211812    21Bu     0.233424    21Ag     0.252414  
       8Bg     0.269051    22Ag     0.269591    22Bu     0.272544  
       8Au     0.274781    23Bu     0.288702     9Au     0.295423  
      23Ag     0.297951    24Ag     0.341875     9Bg     0.353040  
      24Bu     0.359535    25Ag     0.373005    10Au     0.382876  
      10Bg     0.385994    25Bu     0.391402    26Bu     0.425948  
      26Ag     0.439804    11Au     0.446701    11Bg     0.509293  
      27Bu     0.523488    27Ag     0.529183    12Au     0.532774  
      28Bu     0.549195    12Bg     0.549471    28Ag     0.552576  
      13Au     0.562340    29Ag     0.570627    29Bu     0.571527  
      14Au     0.575564    30Ag     0.579550    31Ag     0.592738  
      30Bu     0.607573    13Bg     0.617060    31Bu     0.617820  
      32Ag     0.629871    15Au     0.646850    14Bg     0.657732  
      33Ag     0.657964    32Bu     0.664368    34Ag     0.669860  
      33Bu     0.681894    15Bg     0.692949    16Bg     0.727066  
      35Ag     0.732656    16Au     0.745141    34Bu     0.760236  
      17Bg     0.775671    17Au     0.779878    36Ag     0.787497  
      35Bu     0.795825    36Bu     0.817794    37Ag     0.822026  
      18Bg     0.832963    38Ag     0.835388    37Bu     0.848260  
      18Au     0.899050    38Bu     0.940038    39Ag     0.989384  
      19Au     1.005670    39Bu     1.016837    19Bg     1.023432  
      20Au     1.025991    40Ag     1.047363    40Bu     1.049462  
      20Bg     1.094202    41Bu     1.118240    41Ag     1.135625  
      42Ag     1.159323    21Au     1.175935    42Bu     1.187105  
      21Bg     1.190942    22Au     1.220993    43Bu     1.224034  
      22Bg     1.240713    43Ag     1.250628    44Ag     1.304967  
      44Bu     1.378201    45Ag     1.380537    45Bu     1.421168  
      46Ag     1.512413    46Bu     1.526244    47Ag     1.790187  
      23Au     1.791377    23Bg     1.815942    47Bu     1.835180  
      24Bg     1.849719    48Bu     1.855786    48Ag     1.857151  
      24Au     1.872488    25Au     1.875036    49Bu     1.884420  
      49Ag     1.887253    50Bu     1.918283    25Bg     1.920928  
      26Au     1.964009    50Ag     1.965135    51Bu     1.976918  
      27Au     1.986284    26Bg     2.012632    51Ag     2.015869  
      27Bg     2.024566    52Bu     2.025267    28Au     2.034531  
      52Ag     2.047218    28Bg     2.059437    29Au     2.059450  
      53Ag     2.091829    53Bu     2.112743    54Ag     2.148739  
      30Au     2.155622    54Bu     2.174438    55Bu     2.181454  
      55Ag     2.181653    29Bg     2.184759    56Bu     2.216957  
      31Au     2.225843    30Bg     2.247926    31Bg     2.282014  
      57Bu     2.284237    56Ag     2.298118    57Ag     2.319101  
      32Au     2.331823    58Ag     2.338981    33Au     2.348814  
      32Bg     2.358875    58Bu     2.369928    59Bu     2.409460  
      59Ag     2.435544    60Bu     2.461335    60Ag     2.521113  
      33Bg     2.550544    61Ag     2.602122    61Bu     2.616162  
      34Au     2.618795    34Bg     2.634775    62Ag     2.696642  
      62Bu     2.728450    63Ag     2.742510    63Bu     3.668423  
      64Ag     3.704012    64Bu     3.752612    65Ag     5.000193  
      65Bu     5.287040    66Ag     5.691812    66Bu     5.788323  

    Beta Occupied:                                                        

       1Bu   -89.179951     1Ag   -89.179950     2Bu   -89.081848  
       2Ag   -89.081847     3Ag    -8.181677     3Bu    -8.181575  
       4Ag    -8.089204     4Bu    -8.089202     5Ag    -6.130127  
       5Bu    -6.129831     1Au    -6.126525     1Bg    -6.126502  
       6Ag    -6.125665     6Bu    -6.125631     7Ag    -6.040059  
       7Bu    -6.040059     2Au    -6.033563     2Bg    -6.033563  
       8Ag    -6.030125     8Bu    -6.030125     9Ag    -0.998946  
       9Bu    -0.909474    10Ag    -0.778310    10Bu    -0.692154  
      11Ag    -0.543563    11Bu    -0.515056     3Au    -0.503978  
      12Ag    -0.446655     3Bg    -0.422861    12Bu    -0.373153  
      13Ag    -0.334502     4Au    -0.305503  

    Beta Virtual:                                                         

       4Bg    -0.121769    13Bu    -0.005338    14Bu     0.013475  
      14Ag     0.043137    15Bu     0.063864    15Ag     0.071885  
      16Bu     0.073027     5Au     0.084502    16Ag     0.093402  
      17Ag     0.102963    18Ag     0.106618     5Bg     0.107779  
       6Bg     0.110163    17Bu     0.121211    18Bu     0.135775  
       6Au     0.136606    19Ag     0.164871     7Au     0.175912  
      19Bu     0.183180     7Bg     0.194906    20Ag     0.202744  
      20Bu     0.211812    21Bu     0.233424    21Ag     0.252414  
       8Bg     0.269051    22Ag     0.269591    22Bu     0.272544  
       8Au     0.274781    23Bu     0.288702     9Au     0.295423  
      23Ag     0.297951    24Ag     0.341875     9Bg     0.353040  
      24Bu     0.359535    25Ag     0.373005    10Au     0.382876  
      10Bg     0.385994    25Bu     0.391402    26Bu     0.425948  
      26Ag     0.439804    11Au     0.446701    11Bg     0.509293  
      27Bu     0.523488    27Ag     0.529183    12Au     0.532774  
      28Bu     0.549195    12Bg     0.549471    28Ag     0.552576  
      13Au     0.562340    29Ag     0.570627    29Bu     0.571527  
      14Au     0.575564    30Ag     0.579550    31Ag     0.592738  
      30Bu     0.607573    13Bg     0.617060    31Bu     0.617820  
      32Ag     0.629871    15Au     0.646850    14Bg     0.657732  
      33Ag     0.657964    32Bu     0.664368    34Ag     0.669860  
      33Bu     0.681894    15Bg     0.692949    16Bg     0.727066  
      35Ag     0.732656    16Au     0.745141    34Bu     0.760236  
      17Bg     0.775671    17Au     0.779878    36Ag     0.787497  
      35Bu     0.795825    36Bu     0.817794    37Ag     0.822026  
      18Bg     0.832963    38Ag     0.835388    37Bu     0.848260  
      18Au     0.899050    38Bu     0.940038    39Ag     0.989384  
      19Au     1.005670    39Bu     1.016837    19Bg     1.023432  
      20Au     1.025991    40Ag     1.047363    40Bu     1.049462  
      20Bg     1.094202    41Bu     1.118240    41Ag     1.135625  
      42Ag     1.159323    21Au     1.175935    42Bu     1.187105  
      21Bg     1.190942    22Au     1.220993    43Bu     1.224034  
      22Bg     1.240713    43Ag     1.250628    44Ag     1.304967  
      44Bu     1.378201    45Ag     1.380537    45Bu     1.421168  
      46Ag     1.512413    46Bu     1.526244    47Ag     1.790187  
      23Au     1.791377    23Bg     1.815942    47Bu     1.835180  
      24Bg     1.849719    48Bu     1.855786    48Ag     1.857151  
      24Au     1.872488    25Au     1.875036    49Bu     1.884420  
      49Ag     1.887253    50Bu     1.918283    25Bg     1.920928  
      26Au     1.964009    50Ag     1.965135    51Bu     1.976918  
      27Au     1.986284    26Bg     2.012632    51Ag     2.015869  
      27Bg     2.024566    52Bu     2.025267    28Au     2.034531  
      52Ag     2.047218    28Bg     2.059437    29Au     2.059450  
      53Ag     2.091829    53Bu     2.112743    54Ag     2.148739  
      30Au     2.155622    54Bu     2.174438    55Bu     2.181454  
      55Ag     2.181653    29Bg     2.184759    56Bu     2.216957  
      31Au     2.225843    30Bg     2.247926    31Bg     2.282014  
      57Bu     2.284237    56Ag     2.298118    57Ag     2.319101  
      32Au     2.331823    58Ag     2.338981    33Au     2.348814  
      32Bg     2.358875    58Bu     2.369928    59Bu     2.409460  
      59Ag     2.435544    60Bu     2.461335    60Ag     2.521113  
      33Bg     2.550544    61Ag     2.602122    61Bu     2.616162  
      34Au     2.618795    34Bg     2.634775    62Ag     2.696642  
      62Bu     2.728450    63Ag     2.742510    63Bu     3.668423  
      64Ag     3.704012    64Bu     3.752612    65Ag     5.000193  
      65Bu     5.287040    66Ag     5.691812    66Bu     5.788323  

    Final Occupation by Irrep:
             Ag    Bg    Au    Bu 
    DOCC [    13,    3,    4,   12 ]
    SOCC [     0,    0,    0,    0 ]

  @DF-UKS Final Energy: -1592.78431656565635

   => Energetics <=

    Nuclear Repulsion Energy =            315.5717839050797124
    One-Electron Energy =               -2827.3701816014977339
    Two-Electron Energy =                 994.0137289076002389
    DFT Exchange-Correlation Energy =     -74.9991302073434269
    Empirical Dispersion Energy =          -0.0005175694950720
    VV10 Nonlocal Energy =                  0.0000000000000000
    Total Energy =                      -1592.7843165656561268

  UHF NO Occupations:
  HONO-2 :   11 Ag 2.0000000
  HONO-1 :   12 Ag 2.0000000
  HONO-0 :   13 Ag 2.0000000
  LUNO+0 :   13 Bu 0.0000000
  LUNO+1 :   14 Ag 0.0000000
  LUNO+2 :   15 Ag 0.0000000
  LUNO+3 :   14 Bu 0.0000000


Computation Completed


Properties will be evaluated at   0.000000,   0.000000,   0.000000 [a0]

Properties computed using the SCF density matrix

  Nuclear Dipole Moment: [e a0]
     X:     0.0000      Y:     0.0000      Z:     0.0000

  Electronic Dipole Moment: [e a0]
     X:     0.0000      Y:     0.0000      Z:     0.0000

  Dipole Moment: [e a0]
     X:     0.0000      Y:     0.0000      Z:     0.0000     Total:     0.0000

  Dipole Moment: [D]
     X:     0.0000      Y:     0.0000      Z:     0.0000     Total:     0.0000


*** tstop() called on c5-12.compute.lan at Wed Feb 10 11:03:05 2021
Module time:
	user time   =      63.36 seconds =       1.06 minutes
	system time =       0.56 seconds =       0.01 minutes
	total time  =         64 seconds =       1.07 minutes
Total time:
	user time   =     165.38 seconds =       2.76 minutes
	system time =       2.04 seconds =       0.03 minutes
	total time  =        168 seconds =       2.80 minutes

*** tstart() called on c5-12.compute.lan
*** at Wed Feb 10 11:03:05 2021


         ------------------------------------------------------------
                                   SCF GRAD                          
                          Rob Parrish, Justin Turney,                
                       Andy Simmonett, and Alex Sokolov              
         ------------------------------------------------------------

  ==> Geometry <==

    Molecular point group: c2h
    Full point group: C2h

    Geometry (in Angstrom), charge = 0, multiplicity = 1:

       Center              X                  Y                   Z               Mass       
    ------------   -----------------  -----------------  -----------------  -----------------
         S            0.000000000000     1.012552532309     0.000000000000    31.972071174400
         S            0.000000000000    -1.012552532309     0.000000000000    31.972071174400
         S           -1.857063664873     1.650894572294     0.000000000000    31.972071174400
         S            1.857063664873    -1.650894572294     0.000000000000    31.972071174400

  Nuclear repulsion =  315.571783905079712

  ==> Basis Set <==

  Basis Set: AUG-CC-PVTZ
    Blend: AUG-CC-PVTZ
    Number of shells: 64
    Number of basis function: 200
    Number of Cartesian functions: 236
    Spherical Harmonics?: true
    Max angular momentum: 3

  ==> DFJKGrad: Density-Fitted SCF Gradients <==

    Gradient:                    1
    J tasked:                  Yes
    K tasked:                  Yes
    wK tasked:                 Yes
    Omega:               2.000E-01
    OpenMP threads:              1
    Integrals threads:           1
    Memory [MiB]:            11444
    Schwarz Cutoff:          0E+00
    Fitting Condition:       1E-10

   => Auxiliary Basis Set <=

  Basis Set: (AUG-CC-PVTZ AUX)
    Blend: AUG-CC-PVTZ-JKFIT
    Number of shells: 168
    Number of basis function: 584
    Number of Cartesian functions: 720
    Spherical Harmonics?: true
    Max angular momentum: 4

  ==> DFT Potential <==

   => Composite Functional: WB97X-D <= 

    wB97X-D Hyb-GGA Exchange-Correlation Functional

    J.-D. Chai and M. Head-Gordon, Phys. Chem. Chem. Phys. 10, 6615 (2008)

    Deriv               =              1
    GGA                 =           TRUE
    Meta                =          FALSE

    Exchange Hybrid     =           TRUE
    MP2 Hybrid          =          FALSE

   => Exchange-Correlation Functionals <=

    1.0000   wB97D range-separated functional

   => Exact (HF) Exchange <=

    0.7780            HF,LR [omega = 0.2000]
    0.2220               HF 

   => Molecular Quadrature <=

    Radial Scheme          =       TREUTLER
    Pruning Scheme         =           NONE
    Nuclear Scheme         =       TREUTLER

    BS radius alpha        =              1
    Pruning alpha          =              1
    Radial Points          =             99
    Spherical Points       =            590
    Total Points           =         225670
    Total Blocks           =           1832
    Max Points             =            256
    Max Functions          =            200
    Weights Tolerance      =       1.00E-15


  -Total Gradient:
     Atom            X                  Y                   Z
    ------   -----------------  -----------------  -----------------
       1        0.018962353310    -0.000855045169     0.000000000000
       2       -0.018962353310     0.000855045169     0.000000000000
       3       -0.017125913099     0.004911639099    -0.000000000000
       4        0.017125913099    -0.004911639099    -0.000000000000


*** tstop() called on c5-12.compute.lan at Wed Feb 10 11:03:34 2021
Module time:
	user time   =      28.14 seconds =       0.47 minutes
	system time =       0.24 seconds =       0.00 minutes
	total time  =         29 seconds =       0.48 minutes
Total time:
	user time   =     193.53 seconds =       3.23 minutes
	system time =       2.28 seconds =       0.04 minutes
	total time  =        197 seconds =       3.28 minutes

			-----------------------------------------
			 OPTKING 2.0: for geometry optimizations 
			  - R.A. King,  Bethel University        
			-----------------------------------------

	Previous internal coordinate definitions found.
	---Fragment 1 Geometry and Gradient---
	 S           0.0000000000        1.9134469737        0.0000000000
	 S           0.0000000000       -1.9134469737        0.0000000000
	 S          -3.5093417241        3.1197386036        0.0000000000
	 S           3.5093417241       -3.1197386036        0.0000000000
	             0.0189623533       -0.0008550452        0.0000000000
	            -0.0189623533        0.0008550452        0.0000000000
	            -0.0171259131        0.0049116391       -0.0000000000
	             0.0171259131       -0.0049116391       -0.0000000000

	---Fragment 1 Intrafragment Coordinates---
	 - Coordinate -           - BOHR/RAD -       - ANG/DEG -
	 R(1,2)           =         3.826894	       2.025105
	 R(1,3)           =         3.710878	       1.963712
	 R(2,4)           =         3.710878	       1.963712
	 B(1,2,4)         =         1.901881	     108.969757
	 B(2,1,3)         =         1.901881	     108.969757
	 D(3,1,2,4)       =         3.141593	     180.000000

	Current energy   :     -1592.7843165657

	Energy change for the previous step:
		Projected    :        -0.0149339643
		Actual       :        -0.0083713547

	Performing BFGS update.
	Previous computed or guess Hessian on step 1.
	Steps to be used in Hessian update: 1
	Taking RFO optimization step.
	Going to follow RFO solution 1.
	Using RFO vector 1.
	Norm of target step-size    0.13767
	Projected energy change by RFO approximation:         0.0028458658

	Back-transformation to cartesian coordinates...
	Successfully converged to displaced geometry.

	--- Internal Coordinate Step in ANG or DEG, aJ/ANG or AJ/DEG ---
	 ---------------------------------------------------------------------------
	   Coordinate                Previous        Force       Change         New 
	   ----------                --------       ------       ------       ------
	    1 R(1,2)          =      2.025105    -0.033318    -0.012283     2.012822
	    2 R(1,3)          =      1.963712    -0.146640    -0.049257     1.914455
	    3 R(2,4)          =      1.963712    -0.146640    -0.049257     1.914455
	    4 B(1,2,4)        =    108.969757     0.000265     1.335483   110.305240
	    5 B(2,1,3)        =    108.969757     0.000265     1.335483   110.305240
	    6 D(3,1,2,4)      =    180.000000     0.000000     0.000000   180.000000
	 ---------------------------------------------------------------------------
	Successfully symmetrized geometry.

  ==> Convergence Check <==

  Measures of convergence in internal coordinates in au.
  Criteria marked as inactive (o), active & met (*), and active & unmet ( ).
  ---------------------------------------------------------------------------------------------
   Step     Total Energy     Delta E     MAX Force     RMS Force      MAX Disp      RMS Disp   
  ---------------------------------------------------------------------------------------------
    Convergence Criteria             o    2.00e-06 *    1.00e-06 *    6.00e-06 *    4.00e-06 *
  ---------------------------------------------------------------------------------------------
      2   -1592.78431657   -8.37e-03 o    1.78e-02      1.06e-02      9.31e-02      5.62e-02    ~
  ---------------------------------------------------------------------------------------------

	Writing optimization data to binary file.
	Structure for next step:
	Cartesian Geometry (in Angstrom)
	    S    -0.0196053628   1.0062198425   0.0000000000
	    S     0.0196053628  -1.0062198425   0.0000000000
	    S    -1.8276925055   1.6354739089   0.0000000000
	    S     1.8276925055  -1.6354739089   0.0000000000
			--------------------------
			 OPTKING Finished Execution 
			--------------------------

    Structure for next step:
    Molecular point group: c2h
    Full point group: C2h

    Geometry (in Angstrom), charge = 0, multiplicity = 1:

    S       
    S             1          r1
    S             1          r2      2          a1
    S             2          r3      1          a2      3          d1

    a1        =  110.3052396109
    a2        =  110.3052396109
    d1        = -180.0000000000
    r1        =    2.0128216510
    r2        =    1.9144554903
    r3        =    1.9144554903

gradient() will perform analytic gradient computation.

*** tstart() called on c5-12.compute.lan
*** at Wed Feb 10 11:03:34 2021

   => Loading Basis Set <=

    Name: AUG-CC-PVTZ
    Role: ORBITAL
    Keyword: BASIS
    atoms 1-4 entry S          line   906 file /apps/gb/PSI4/1.4.0/share/psi4/basis/aug-cc-pvtz.gbs 

   => WB97X-D: Empirical Dispersion <=

    Chai and Head-Gordon Dispersion Correction
    Chai, J.-D.; Head-Gordon, M. (2010), J. Chem. Phys., 132: 6615-6620

        s6 =       1.000000


         ---------------------------------------------------------
                                   SCF
               by Justin Turney, Rob Parrish, Andy Simmonett
                          and Daniel G. A. Smith
                              UKS Reference
                        1 Threads,  15258 MiB Core
         ---------------------------------------------------------

  ==> Geometry <==

    Molecular point group: c2h
    Full point group: C2h

    Geometry (in Angstrom), charge = 0, multiplicity = 1:

       Center              X                  Y                   Z               Mass       
    ------------   -----------------  -----------------  -----------------  -----------------
         S            0.000000000000     1.006410825479     0.000000000000    31.972071174400
         S            0.000000000000    -1.006410825479     0.000000000000    31.972071174400
         S           -1.795485873234     1.670767885614     0.000000000000    31.972071174400
         S            1.795485873234    -1.670767885614     0.000000000000    31.972071174400

  Running in c2h symmetry.

  Rotational constants: A =      0.52705  B =      0.04039  C =      0.03751 [cm^-1]
  Rotational constants: A =  15800.66566  B =   1210.71772  C =   1124.54969 [MHz]
  Nuclear repulsion =  320.494035448899467

  Charge       = 0
  Multiplicity = 1
  Electrons    = 64
  Nalpha       = 32
  Nbeta        = 32

  ==> Algorithm <==

  SCF Algorithm Type is DF.
  DIIS enabled.
  MOM disabled.
  Fractional occupation disabled.
  Guess Type is READ.
  Energy threshold   = 1.00e-08
  Density threshold  = 1.00e-08
  Integral threshold = 0.00e+00

  ==> Primary Basis <==

  Basis Set: AUG-CC-PVTZ
    Blend: AUG-CC-PVTZ
    Number of shells: 64
    Number of basis function: 200
    Number of Cartesian functions: 236
    Spherical Harmonics?: true
    Max angular momentum: 3

  ==> DFT Potential <==

   => Composite Functional: WB97X-D <= 

    wB97X-D Hyb-GGA Exchange-Correlation Functional

    J.-D. Chai and M. Head-Gordon, Phys. Chem. Chem. Phys. 10, 6615 (2008)

    Deriv               =              1
    GGA                 =           TRUE
    Meta                =          FALSE

    Exchange Hybrid     =           TRUE
    MP2 Hybrid          =          FALSE

   => Exchange-Correlation Functionals <=

    1.0000   wB97D range-separated functional

   => Exact (HF) Exchange <=

    0.7780            HF,LR [omega = 0.2000]
    0.2220               HF 

   => Molecular Quadrature <=

    Radial Scheme          =       TREUTLER
    Pruning Scheme         =           NONE
    Nuclear Scheme         =       TREUTLER

    BS radius alpha        =              1
    Pruning alpha          =              1
    Radial Points          =             99
    Spherical Points       =            590
    Total Points           =         225596
    Total Blocks           =           1819
    Max Points             =            256
    Max Functions          =            200
    Weights Tolerance      =       1.00E-15

   => Loading Basis Set <=

    Name: (AUG-CC-PVTZ AUX)
    Role: JKFIT
    Keyword: DF_BASIS_SCF
    atoms 1-4 entry S          line   730 file /apps/gb/PSI4/1.4.0/share/psi4/basis/aug-cc-pvtz-jkfit.gbs 

   => Loading Basis Set <=

    Name: AUG-CC-PVTZ
    Role: ORBITAL
    Keyword: BASIS
    atoms 1-4 entry S          line   906 file /apps/gb/PSI4/1.4.0/share/psi4/basis/aug-cc-pvtz.gbs 

  Reading orbitals from file 180, no projection.

  ==> Pre-Iterations <==

   -------------------------------------------------------
    Irrep   Nso     Nmo     Nalpha   Nbeta   Ndocc  Nsocc
   -------------------------------------------------------
     Ag        66      66       0       0       0       0
     Bg        34      34       0       0       0       0
     Au        34      34       0       0       0       0
     Bu        66      66       0       0       0       0
   -------------------------------------------------------
    Total     200     200      32      32      32       0
   -------------------------------------------------------

  ==> Integral Setup <==

  ==> DiskDFJK: Density-Fitted J/K Matrices <==

    J tasked:                  Yes
    K tasked:                  Yes
    wK tasked:                 Yes
    Omega:               2.000E-01
    OpenMP threads:              1
    Integrals threads:           1
    Memory [MiB]:            10312
    Algorithm:                Core
    Integral Cache:           NONE
    Schwarz Cutoff:          1E-12
    Fitting Condition:       1E-10

   => Auxiliary Basis Set <=

  Basis Set: (AUG-CC-PVTZ AUX)
    Blend: AUG-CC-PVTZ-JKFIT
    Number of shells: 168
    Number of basis function: 584
    Number of Cartesian functions: 720
    Spherical Harmonics?: true
    Max angular momentum: 4

  Cached 100.0% of DFT collocation blocks in 1.105 [GiB].

  Minimum eigenvalue in the overlap matrix is 1.6192325072E-04.
  Using Symmetric Orthogonalization.

  SCF Guess: Orbitals guess was supplied from a previous computation.

  ==> Iterations <==

                           Total Energy        Delta E     RMS |[F,P]|

   @DF-UKS iter   0: -1592.82658064511452   -1.59283e+03   1.85018e-03 
   @DF-UKS iter   1: -1592.78521687572857    4.13638e-02   2.26517e-04 DIIS
   @DF-UKS iter   2: -1592.78540270255462   -1.85827e-04   1.96901e-04 DIIS
   @DF-UKS iter   3: -1592.78563477247735   -2.32070e-04   5.65776e-05 DIIS
   @DF-UKS iter   4: -1592.78565605098584   -2.12785e-05   1.37352e-05 DIIS
   @DF-UKS iter   5: -1592.78565923396354   -3.18298e-06   3.25059e-06 DIIS
   @DF-UKS iter   6: -1592.78565952300005   -2.89037e-07   9.39165e-07 DIIS
   @DF-UKS iter   7: -1592.78565955573913   -3.27391e-08   2.90411e-07 DIIS
   @DF-UKS iter   8: -1592.78565955733825   -1.59912e-09   9.26292e-08 DIIS
   @DF-UKS iter   9: -1592.78565955750400   -1.65755e-10   1.98796e-08 DIIS
   @DF-UKS iter  10: -1592.78565955751628   -1.22782e-11   9.17555e-09 DIIS
  Energy and wave function converged.


  ==> Post-Iterations <==

   @Spin Contamination Metric:   4.263256415E-14
   @S^2 Expected:                0.000000000E+00
   @S^2 Observed:                4.263256415E-14
   @S   Expected:                0.000000000E+00
   @S   Observed:                0.000000000E+00

    Orbital Energies [Eh]
    ---------------------

    Alpha Occupied:                                                       

       1Bu   -89.175401     1Ag   -89.175400     2Bu   -89.078630  
       2Ag   -89.078629     3Ag    -8.178232     3Bu    -8.178124  
       4Ag    -8.087401     4Bu    -8.087399     5Ag    -6.126618  
       5Bu    -6.126298     1Au    -6.123110     1Bg    -6.123085  
       6Ag    -6.122050     6Bu    -6.122013     7Ag    -6.037911  
       7Bu    -6.037910     2Au    -6.031701     2Bg    -6.031701  
       8Ag    -6.028450     8Bu    -6.028450     9Ag    -1.007034  
       9Bu    -0.922389    10Ag    -0.780756    10Bu    -0.685543  
      11Ag    -0.545966    11Bu    -0.516913     3Au    -0.508310  
      12Ag    -0.448830     3Bg    -0.429228    12Bu    -0.376505  
      13Ag    -0.332077     4Au    -0.303816  

    Alpha Virtual:                                                        

       4Bg    -0.114644    13Bu     0.001423    14Bu     0.022620  
      14Ag     0.051948    15Bu     0.063672    15Ag     0.072352  
      16Bu     0.076036     5Au     0.084080    16Ag     0.096271  
      17Ag     0.104991    18Ag     0.107527     5Bg     0.107695  
       6Bg     0.110088    17Bu     0.120951    18Bu     0.136485  
       6Au     0.136874    19Ag     0.165867     7Au     0.175889  
      19Bu     0.183160     7Bg     0.196722    20Ag     0.203374  
      20Bu     0.211459    21Bu     0.235071    21Ag     0.253267  
      22Ag     0.269769     8Bg     0.270434    22Bu     0.276979  
       8Au     0.277905    23Bu     0.287584     9Au     0.296451  
      23Ag     0.299589    24Ag     0.342606     9Bg     0.354742  
      24Bu     0.361797    25Ag     0.377865    10Au     0.384635  
      10Bg     0.386907    25Bu     0.395522    26Bu     0.431233  
      26Ag     0.440991    11Au     0.446974    11Bg     0.507229  
      27Bu     0.522681    27Ag     0.528490    12Au     0.533756  
      28Bu     0.549046    12Bg     0.551580    28Ag     0.552965  
      13Au     0.564388    29Bu     0.571207    29Ag     0.572304  
      14Au     0.576149    30Ag     0.580350    31Ag     0.594265  
      30Bu     0.605169    13Bg     0.614283    31Bu     0.616467  
      32Ag     0.626054    15Au     0.646697    33Ag     0.658368  
      14Bg     0.662580    32Bu     0.667089    34Ag     0.673925  
      33Bu     0.688442    15Bg     0.695787    16Bg     0.734559  
      35Ag     0.741559    16Au     0.754033    34Bu     0.768091  
      17Au     0.781210    17Bg     0.783492    36Ag     0.797945  
      35Bu     0.801722    36Bu     0.824733    37Ag     0.832626  
      18Bg     0.836733    38Ag     0.843727    37Bu     0.858010  
      18Au     0.905807    38Bu     0.958316    39Ag     1.001006  
      19Au     1.013351    39Bu     1.024613    19Bg     1.033298  
      20Au     1.035509    40Ag     1.057298    40Bu     1.062739  
      20Bg     1.100524    41Bu     1.122685    41Ag     1.141814  
      42Ag     1.176501    21Au     1.186426    21Bg     1.196445  
      42Bu     1.200853    22Au     1.229909    43Bu     1.231103  
      22Bg     1.251709    43Ag     1.264416    44Ag     1.310187  
      44Bu     1.391640    45Ag     1.394129    45Bu     1.434178  
      46Ag     1.515531    46Bu     1.524554    47Ag     1.787986  
      23Au     1.793243    23Bg     1.811363    47Bu     1.832020  
      24Bg     1.851838    48Bu     1.857139    24Au     1.859910  
      48Ag     1.860201    25Au     1.876374    49Ag     1.877702  
      49Bu     1.881741    25Bg     1.922430    50Bu     1.941606  
      50Ag     1.957702    26Au     1.962077    51Bu     1.967012  
      27Au     1.989601    26Bg     2.006589    51Ag     2.012506  
      52Bu     2.018837    27Bg     2.020442    28Au     2.046852  
      52Ag     2.047801    29Au     2.067060    28Bg     2.070735  
      53Ag     2.096704    53Bu     2.106377    30Au     2.155032  
      54Ag     2.160144    54Bu     2.171229    55Bu     2.182530  
      29Bg     2.187341    55Ag     2.193017    31Au     2.222804  
      56Bu     2.227940    30Bg     2.253405    57Bu     2.292195  
      31Bg     2.301980    56Ag     2.311118    57Ag     2.323169  
      32Au     2.347556    58Ag     2.350956    33Au     2.378982  
      32Bg     2.381035    58Bu     2.389655    59Bu     2.424537  
      59Ag     2.452474    60Bu     2.488106    60Ag     2.545989  
      33Bg     2.562410    34Au     2.654910    61Ag     2.668086  
      34Bg     2.669757    61Bu     2.702014    62Ag     2.731781  
      62Bu     2.771040    63Ag     2.772329    63Bu     3.670162  
      64Ag     3.709567    64Bu     3.772781    65Ag     5.142008  
      65Bu     5.351253    66Ag     5.756134    66Bu     5.815772  

    Beta Occupied:                                                        

       1Bu   -89.175401     1Ag   -89.175400     2Bu   -89.078630  
       2Ag   -89.078629     3Ag    -8.178232     3Bu    -8.178124  
       4Ag    -8.087401     4Bu    -8.087399     5Ag    -6.126618  
       5Bu    -6.126298     1Au    -6.123110     1Bg    -6.123085  
       6Ag    -6.122050     6Bu    -6.122013     7Ag    -6.037911  
       7Bu    -6.037910     2Au    -6.031701     2Bg    -6.031701  
       8Ag    -6.028450     8Bu    -6.028450     9Ag    -1.007034  
       9Bu    -0.922389    10Ag    -0.780756    10Bu    -0.685543  
      11Ag    -0.545966    11Bu    -0.516913     3Au    -0.508310  
      12Ag    -0.448830     3Bg    -0.429228    12Bu    -0.376505  
      13Ag    -0.332077     4Au    -0.303816  

    Beta Virtual:                                                         

       4Bg    -0.114644    13Bu     0.001423    14Bu     0.022620  
      14Ag     0.051948    15Bu     0.063672    15Ag     0.072352  
      16Bu     0.076036     5Au     0.084080    16Ag     0.096271  
      17Ag     0.104991    18Ag     0.107527     5Bg     0.107695  
       6Bg     0.110088    17Bu     0.120951    18Bu     0.136485  
       6Au     0.136874    19Ag     0.165867     7Au     0.175889  
      19Bu     0.183160     7Bg     0.196722    20Ag     0.203374  
      20Bu     0.211459    21Bu     0.235071    21Ag     0.253267  
      22Ag     0.269769     8Bg     0.270434    22Bu     0.276979  
       8Au     0.277905    23Bu     0.287584     9Au     0.296451  
      23Ag     0.299589    24Ag     0.342606     9Bg     0.354742  
      24Bu     0.361797    25Ag     0.377865    10Au     0.384635  
      10Bg     0.386907    25Bu     0.395522    26Bu     0.431233  
      26Ag     0.440991    11Au     0.446974    11Bg     0.507229  
      27Bu     0.522681    27Ag     0.528490    12Au     0.533756  
      28Bu     0.549046    12Bg     0.551580    28Ag     0.552965  
      13Au     0.564388    29Bu     0.571207    29Ag     0.572304  
      14Au     0.576149    30Ag     0.580350    31Ag     0.594265  
      30Bu     0.605169    13Bg     0.614283    31Bu     0.616467  
      32Ag     0.626054    15Au     0.646697    33Ag     0.658368  
      14Bg     0.662580    32Bu     0.667089    34Ag     0.673925  
      33Bu     0.688442    15Bg     0.695787    16Bg     0.734559  
      35Ag     0.741559    16Au     0.754033    34Bu     0.768091  
      17Au     0.781210    17Bg     0.783492    36Ag     0.797945  
      35Bu     0.801722    36Bu     0.824733    37Ag     0.832626  
      18Bg     0.836733    38Ag     0.843727    37Bu     0.858010  
      18Au     0.905807    38Bu     0.958316    39Ag     1.001006  
      19Au     1.013351    39Bu     1.024613    19Bg     1.033298  
      20Au     1.035509    40Ag     1.057298    40Bu     1.062739  
      20Bg     1.100524    41Bu     1.122685    41Ag     1.141814  
      42Ag     1.176501    21Au     1.186426    21Bg     1.196445  
      42Bu     1.200853    22Au     1.229909    43Bu     1.231103  
      22Bg     1.251709    43Ag     1.264416    44Ag     1.310187  
      44Bu     1.391640    45Ag     1.394129    45Bu     1.434178  
      46Ag     1.515531    46Bu     1.524554    47Ag     1.787986  
      23Au     1.793243    23Bg     1.811363    47Bu     1.832020  
      24Bg     1.851838    48Bu     1.857139    24Au     1.859910  
      48Ag     1.860201    25Au     1.876374    49Ag     1.877702  
      49Bu     1.881741    25Bg     1.922430    50Bu     1.941606  
      50Ag     1.957702    26Au     1.962077    51Bu     1.967012  
      27Au     1.989601    26Bg     2.006589    51Ag     2.012506  
      52Bu     2.018837    27Bg     2.020442    28Au     2.046852  
      52Ag     2.047801    29Au     2.067060    28Bg     2.070735  
      53Ag     2.096704    53Bu     2.106377    30Au     2.155032  
      54Ag     2.160144    54Bu     2.171229    55Bu     2.182530  
      29Bg     2.187341    55Ag     2.193017    31Au     2.222804  
      56Bu     2.227940    30Bg     2.253405    57Bu     2.292195  
      31Bg     2.301980    56Ag     2.311118    57Ag     2.323169  
      32Au     2.347556    58Ag     2.350956    33Au     2.378982  
      32Bg     2.381035    58Bu     2.389655    59Bu     2.424537  
      59Ag     2.452474    60Bu     2.488106    60Ag     2.545989  
      33Bg     2.562410    34Au     2.654910    61Ag     2.668086  
      34Bg     2.669757    61Bu     2.702014    62Ag     2.731781  
      62Bu     2.771040    63Ag     2.772329    63Bu     3.670162  
      64Ag     3.709567    64Bu     3.772781    65Ag     5.142008  
      65Bu     5.351253    66Ag     5.756134    66Bu     5.815772  

    Final Occupation by Irrep:
             Ag    Bg    Au    Bu 
    DOCC [    13,    3,    4,   12 ]
    SOCC [     0,    0,    0,    0 ]

  @DF-UKS Final Energy: -1592.78565955751628

   => Energetics <=

    Nuclear Repulsion Energy =            320.4940354488994672
    One-Electron Energy =               -2837.2435447825300798
    Two-Electron Energy =                 999.0003551756799425
    DFT Exchange-Correlation Energy =     -75.0359936382641592
    Empirical Dispersion Energy =          -0.0005117613014114
    VV10 Nonlocal Energy =                  0.0000000000000000
    Total Energy =                      -1592.7856595575162828

  UHF NO Occupations:
  HONO-2 :   12 Ag 2.0000000
  HONO-1 :   13 Ag 2.0000000
  HONO-0 :   12 Bu 2.0000000
  LUNO+0 :   13 Bu 0.0000000
  LUNO+1 :   14 Bu 0.0000000
  LUNO+2 :   14 Ag 0.0000000
  LUNO+3 :   15 Bu 0.0000000


Computation Completed


Properties will be evaluated at   0.000000,   0.000000,   0.000000 [a0]

Properties computed using the SCF density matrix

  Nuclear Dipole Moment: [e a0]
     X:     0.0000      Y:     0.0000      Z:     0.0000

  Electronic Dipole Moment: [e a0]
     X:     0.0000      Y:     0.0000      Z:     0.0000

  Dipole Moment: [e a0]
     X:     0.0000      Y:     0.0000      Z:     0.0000     Total:     0.0000

  Dipole Moment: [D]
     X:     0.0000      Y:     0.0000      Z:     0.0000     Total:     0.0000


*** tstop() called on c5-12.compute.lan at Wed Feb 10 11:04:40 2021
Module time:
	user time   =      65.53 seconds =       1.09 minutes
	system time =       0.53 seconds =       0.01 minutes
	total time  =         66 seconds =       1.10 minutes
Total time:
	user time   =     259.08 seconds =       4.32 minutes
	system time =       2.82 seconds =       0.05 minutes
	total time  =        263 seconds =       4.38 minutes

*** tstart() called on c5-12.compute.lan
*** at Wed Feb 10 11:04:40 2021


         ------------------------------------------------------------
                                   SCF GRAD                          
                          Rob Parrish, Justin Turney,                
                       Andy Simmonett, and Alex Sokolov              
         ------------------------------------------------------------

  ==> Geometry <==

    Molecular point group: c2h
    Full point group: C2h

    Geometry (in Angstrom), charge = 0, multiplicity = 1:

       Center              X                  Y                   Z               Mass       
    ------------   -----------------  -----------------  -----------------  -----------------
         S            0.000000000000     1.006410825479     0.000000000000    31.972071174400
         S            0.000000000000    -1.006410825479     0.000000000000    31.972071174400
         S           -1.795485873234     1.670767885614     0.000000000000    31.972071174400
         S            1.795485873234    -1.670767885614     0.000000000000    31.972071174400

  Nuclear repulsion =  320.494035448899467

  ==> Basis Set <==

  Basis Set: AUG-CC-PVTZ
    Blend: AUG-CC-PVTZ
    Number of shells: 64
    Number of basis function: 200
    Number of Cartesian functions: 236
    Spherical Harmonics?: true
    Max angular momentum: 3

  ==> DFJKGrad: Density-Fitted SCF Gradients <==

    Gradient:                    1
    J tasked:                  Yes
    K tasked:                  Yes
    wK tasked:                 Yes
    Omega:               2.000E-01
    OpenMP threads:              1
    Integrals threads:           1
    Memory [MiB]:            11444
    Schwarz Cutoff:          0E+00
    Fitting Condition:       1E-10

   => Auxiliary Basis Set <=

  Basis Set: (AUG-CC-PVTZ AUX)
    Blend: AUG-CC-PVTZ-JKFIT
    Number of shells: 168
    Number of basis function: 584
    Number of Cartesian functions: 720
    Spherical Harmonics?: true
    Max angular momentum: 4

  ==> DFT Potential <==

   => Composite Functional: WB97X-D <= 

    wB97X-D Hyb-GGA Exchange-Correlation Functional

    J.-D. Chai and M. Head-Gordon, Phys. Chem. Chem. Phys. 10, 6615 (2008)

    Deriv               =              1
    GGA                 =           TRUE
    Meta                =          FALSE

    Exchange Hybrid     =           TRUE
    MP2 Hybrid          =          FALSE

   => Exchange-Correlation Functionals <=

    1.0000   wB97D range-separated functional

   => Exact (HF) Exchange <=

    0.7780            HF,LR [omega = 0.2000]
    0.2220               HF 

   => Molecular Quadrature <=

    Radial Scheme          =       TREUTLER
    Pruning Scheme         =           NONE
    Nuclear Scheme         =       TREUTLER

    BS radius alpha        =              1
    Pruning alpha          =              1
    Radial Points          =             99
    Spherical Points       =            590
    Total Points           =         225596
    Total Blocks           =           1819
    Max Points             =            256
    Max Functions          =            200
    Weights Tolerance      =       1.00E-15


  -Total Gradient:
     Atom            X                  Y                   Z
    ------   -----------------  -----------------  -----------------
       1       -0.004691215943    -0.000986340351     0.000000000000
       2        0.004691215943     0.000986340351     0.000000000000
       3        0.005168908214    -0.002156641926    -0.000000000000
       4       -0.005168908214     0.002156641926    -0.000000000000


*** tstop() called on c5-12.compute.lan at Wed Feb 10 11:05:07 2021
Module time:
	user time   =      26.85 seconds =       0.45 minutes
	system time =       0.25 seconds =       0.00 minutes
	total time  =         27 seconds =       0.45 minutes
Total time:
	user time   =     285.93 seconds =       4.77 minutes
	system time =       3.07 seconds =       0.05 minutes
	total time  =        290 seconds =       4.83 minutes

			-----------------------------------------
			 OPTKING 2.0: for geometry optimizations 
			  - R.A. King,  Bethel University        
			-----------------------------------------

	Previous internal coordinate definitions found.
	---Fragment 1 Geometry and Gradient---
	 S           0.0000000000        1.9018408299        0.0000000000
	 S           0.0000000000       -1.9018408299        0.0000000000
	 S          -3.3929765625        3.1572937230        0.0000000000
	 S           3.3929765625       -3.1572937230        0.0000000000
	            -0.0046912159       -0.0009863404        0.0000000000
	             0.0046912159        0.0009863404        0.0000000000
	             0.0051689082       -0.0021566419       -0.0000000000
	            -0.0051689082        0.0021566419       -0.0000000000

	---Fragment 1 Intrafragment Coordinates---
	 - Coordinate -           - BOHR/RAD -       - ANG/DEG -
	 R(1,2)           =         3.803682	       2.012822
	 R(1,3)           =         3.617797	       1.914455
	 R(2,4)           =         3.617797	       1.914455
	 B(1,2,4)         =         1.925190	     110.305240
	 B(2,1,3)         =         1.925190	     110.305240
	 D(3,1,2,4)       =         3.141593	     180.000000

	Current energy   :     -1592.7856595575

	Energy change for the previous step:
		Projected    :         0.0028458658
		Actual       :        -0.0013429919

	Performing BFGS update.
	Previous computed or guess Hessian on step 1.
	Steps to be used in Hessian update: 2 1
	Taking RFO optimization step.
	Going to follow RFO solution 1.
	Using RFO vector 1.
	Norm of target step-size    0.03737
	Projected energy change by RFO approximation:         0.0000682665

	Back-transformation to cartesian coordinates...
	Successfully converged to displaced geometry.

	--- Internal Coordinate Step in ANG or DEG, aJ/ANG or AJ/DEG ---
	 ---------------------------------------------------------------------------
	   Coordinate                Previous        Force       Change         New 
	   ----------                --------       ------       ------       ------
	    1 R(1,2)          =      2.012822     0.025984     0.006377     2.019199
	    2 R(1,3)          =      1.914455     0.046058     0.013237     1.927692
	    3 R(2,4)          =      1.914455     0.046058     0.013237     1.927692
	    4 B(1,2,4)        =    110.305240     0.000067     0.013953   110.319193
	    5 B(2,1,3)        =    110.305240     0.000067     0.013953   110.319193
	    6 D(3,1,2,4)      =    180.000000     0.000000     0.000000   180.000000
	 ---------------------------------------------------------------------------
	Successfully symmetrized geometry.

  ==> Convergence Check <==

  Measures of convergence in internal coordinates in au.
  Criteria marked as inactive (o), active & met (*), and active & unmet ( ).
  ---------------------------------------------------------------------------------------------
   Step     Total Energy     Delta E     MAX Force     RMS Force      MAX Disp      RMS Disp   
[...]
      66App    2.556717    67App    2.648262   121Ap     2.653516  
      68App    2.662097   122Ap     2.684788   123Ap     2.724623  
     124Ap     2.758138   125Ap     2.760177   126Ap     3.669457  
     127Ap     3.709504   128Ap     3.769075   129Ap     5.112185  
     130Ap     5.330869   131Ap     5.737436   132Ap     5.804951  

    Beta Occupied:                                                        

       1Ap   -89.176225     2Ap   -89.176196     3Ap   -89.079647  
       4Ap   -89.079627     5Ap    -8.178730     6Ap    -8.178622  
       7Ap    -8.088090     8Ap    -8.088061     9Ap    -6.127129  
      10Ap    -6.126822     1App   -6.123615     2App   -6.123574  
      11Ap    -6.122594    12Ap    -6.122546    13Ap    -6.038662  
      14Ap    -6.038636     3App   -6.032406     4App   -6.032376  
      15Ap    -6.029128    16Ap    -6.029099    17Ap    -1.004187  
      18Ap    -0.919908    19Ap    -0.780098    20Ap    -0.686803  
      21Ap    -0.545173    22Ap    -0.516047     5App   -0.506679  
      23Ap    -0.448452     6App   -0.428101    24Ap    -0.376326  
      25Ap    -0.332320     7App   -0.304129  

    Beta Virtual:                                                         

       8App   -0.116247    26Ap    -0.001405    27Ap     0.021018  
      28Ap     0.050397    29Ap     0.063794    30Ap     0.072243  
      31Ap     0.075334     9App    0.084202    32Ap     0.095973  
      33Ap     0.104731    34Ap     0.107136    10App    0.107785  
      11App    0.110029    35Ap     0.120786    36Ap     0.136273  
      12App    0.136815    37Ap     0.165533    13App    0.175877  
      38Ap     0.183240    14App    0.196487    39Ap     0.203235  
      40Ap     0.211578    41Ap     0.234315    42Ap     0.253107  
      43Ap     0.269384    15App    0.269925    44Ap     0.276420  
      16App    0.277443    45Ap     0.287890    17App    0.295938  
      46Ap     0.299561    47Ap     0.342121    18App    0.354326  
      48Ap     0.360909    49Ap     0.376742    19App    0.384044  
      20App    0.386825    50Ap     0.394751    51Ap     0.429951  
      52Ap     0.440865    21App    0.447069    22App    0.507555  
      53Ap     0.522715    54Ap     0.528392    23App    0.533805  
      55Ap     0.549406    24App    0.551145    56Ap     0.553201  
      25App    0.564059    57Ap     0.571167    58Ap     0.572364  
      26App    0.576009    59Ap     0.579758    60Ap     0.593363  
      61Ap     0.605743    27App    0.614795    62Ap     0.616046  
      63Ap     0.626833    28App    0.646539    64Ap     0.657958  
      29App    0.660851    65Ap     0.666389    66Ap     0.672583  
      67Ap     0.687399    30App    0.694844    31App    0.733164  
      68Ap     0.739541    32App    0.752215    69Ap     0.765933  
      33App    0.780554    34App    0.781408    70Ap     0.795417  
      71Ap     0.799772    72Ap     0.822434    73Ap     0.830462  
      35App    0.835894    74Ap     0.841676    75Ap     0.855294  
      36App    0.903285    76Ap     0.953804    77Ap     0.998027  
      37App    1.010627    78Ap     1.022984    38App    1.031732  
      39App    1.033650    79Ap     1.054792    80Ap     1.059008  
      40App    1.097601    81Ap     1.120190    82Ap     1.142358  
      83Ap     1.171682    41App    1.184126    42App    1.195203  
      84Ap     1.198168    43App    1.228388    85Ap     1.229414  
      44App    1.249295    86Ap     1.259959    87Ap     1.310382  
      88Ap     1.388574    89Ap     1.390465    90Ap     1.431127  
      91Ap     1.514617    92Ap     1.524896    93Ap     1.788222  
      45App    1.793209    46App    1.812538    94Ap     1.832456  
      47App    1.851041    95Ap     1.856259    96Ap     1.859038  
      48App    1.861936    49App    1.876511    97Ap     1.880030  
      98Ap     1.882070    50App    1.922875    99Ap     1.937747  
     100Ap     1.959683    51App    1.962783   101Ap     1.968278  
      52App    1.988820    53App    2.008260   102Ap     2.013548  
     103Ap     2.020637    54App    2.020893    55App    2.044433  
     104Ap     2.047258    56App    2.063648    57App    2.068297  
     105Ap     2.095649   106Ap     2.107460    58App    2.155116  
     107Ap     2.157489   108Ap     2.170674   109Ap     2.181740  
      59App    2.185889   110Ap     2.188405    60App    2.222540  
     111Ap     2.224757    61App    2.250808   112Ap     2.289665  
      62App    2.298062   113Ap     2.307319   114Ap     2.323268  
      63App    2.343637   115Ap     2.347629    64App    2.371390  
      65App    2.376732   116Ap     2.386756   117Ap     2.420510  
     118Ap     2.445252   119Ap     2.482944   120Ap     2.538077  
      66App    2.556717    67App    2.648262   121Ap     2.653516  
      68App    2.662097   122Ap     2.684788   123Ap     2.724623  
     124Ap     2.758138   125Ap     2.760177   126Ap     3.669457  
     127Ap     3.709504   128Ap     3.769075   129Ap     5.112185  
     130Ap     5.330869   131Ap     5.737436   132Ap     5.804951  

    Final Occupation by Irrep:
             Ap   App 
    DOCC [    25,    7 ]
    SOCC [     0,    0 ]

  @DF-UKS Final Energy: -1592.78578552007207

   => Energetics <=

    Nuclear Repulsion Energy =            319.0193062514469489
    One-Electron Energy =               -2834.2922870178617814
    Two-Electron Energy =                 997.5143317056922569
    DFT Exchange-Correlation Energy =     -75.0266200778704473
    Empirical Dispersion Energy =          -0.0005163814791211
    VV10 Nonlocal Energy =                  0.0000000000000000
    Total Energy =                      -1592.7857855200722952

  UHF NO Occupations:
  HONO-2 :   23 Ap 2.0000000
  HONO-1 :   24 Ap 2.0000000
  HONO-0 :   25 Ap 2.0000000
  LUNO+0 :   26 Ap 0.0000000
  LUNO+1 :   27 Ap 0.0000000
  LUNO+2 :   28 Ap 0.0000000
  LUNO+3 :   29 Ap 0.0000000


Computation Completed


Properties will be evaluated at   0.000000,   0.000000,   0.000000 [a0]

Properties computed using the SCF density matrix

  Nuclear Dipole Moment: [e a0]
     X:     0.0000      Y:     0.0000      Z:     0.0000

  Electronic Dipole Moment: [e a0]
     X:     0.0004      Y:    -0.0008      Z:     0.0000

  Dipole Moment: [e a0]
     X:     0.0004      Y:    -0.0008      Z:     0.0000     Total:     0.0009

  Dipole Moment: [D]
     X:     0.0010      Y:    -0.0021      Z:     0.0000     Total:     0.0024


*** tstop() called on c5-12.compute.lan at Wed Feb 10 11:30:37 2021
Module time:
	user time   =      77.26 seconds =       1.29 minutes
	system time =       0.70 seconds =       0.01 minutes
	total time  =         78 seconds =       1.30 minutes
Total time:
	user time   =    1760.26 seconds =      29.34 minutes
	system time =      16.08 seconds =       0.27 minutes
	total time  =       1820 seconds =      30.33 minutes

*** tstart() called on c5-12.compute.lan
*** at Wed Feb 10 11:30:37 2021


         ------------------------------------------------------------
                                   SCF GRAD                          
                          Rob Parrish, Justin Turney,                
                       Andy Simmonett, and Alex Sokolov              
         ------------------------------------------------------------

  ==> Geometry <==

    Molecular point group: cs
    Full point group: Cs

    Geometry (in Angstrom), charge = 0, multiplicity = 1:

       Center              X                  Y                   Z               Mass       
    ------------   -----------------  -----------------  -----------------  -----------------
         S            0.000000000000     1.010069806721     0.000000000000    31.972071174400
         S            0.000000000000    -1.010537741959     0.000000000000    31.972071174400
         S           -1.804950454442     1.677643814971     0.000000000000    31.972071174400
         S            1.804950454442    -1.677175879732     0.000000000000    31.972071174400

  Nuclear repulsion =  319.019306251446949

  ==> Basis Set <==

  Basis Set: AUG-CC-PVTZ
    Blend: AUG-CC-PVTZ
    Number of shells: 64
    Number of basis function: 200
    Number of Cartesian functions: 236
    Spherical Harmonics?: true
    Max angular momentum: 3

  ==> DFJKGrad: Density-Fitted SCF Gradients <==

    Gradient:                    1
    J tasked:                  Yes
    K tasked:                  Yes
    wK tasked:                 Yes
    Omega:               2.000E-01
    OpenMP threads:              1
    Integrals threads:           1
    Memory [MiB]:            11444
    Schwarz Cutoff:          0E+00
    Fitting Condition:       1E-10

   => Auxiliary Basis Set <=

  Basis Set: (AUG-CC-PVTZ AUX)
    Blend: AUG-CC-PVTZ-JKFIT
    Number of shells: 168
    Number of basis function: 584
    Number of Cartesian functions: 720
    Spherical Harmonics?: true
    Max angular momentum: 4

  ==> DFT Potential <==

   => Composite Functional: WB97X-D <= 

    wB97X-D Hyb-GGA Exchange-Correlation Functional

    J.-D. Chai and M. Head-Gordon, Phys. Chem. Chem. Phys. 10, 6615 (2008)

    Deriv               =              1
    GGA                 =           TRUE
    Meta                =          FALSE

    Exchange Hybrid     =           TRUE
    MP2 Hybrid          =          FALSE

   => Exchange-Correlation Functionals <=

    1.0000   wB97D range-separated functional

   => Exact (HF) Exchange <=

    0.7780            HF,LR [omega = 0.2000]
    0.2220               HF 

   => Molecular Quadrature <=

    Radial Scheme          =       TREUTLER
    Pruning Scheme         =           NONE
    Nuclear Scheme         =       TREUTLER

    BS radius alpha        =              1
    Pruning alpha          =              1
    Radial Points          =             99
    Spherical Points       =            590
    Total Points           =         225635
    Total Blocks           =           1822
    Max Points             =            256
    Max Functions          =            200
    Weights Tolerance      =       1.00E-15


  -Total Gradient:
     Atom            X                  Y                   Z
    ------   -----------------  -----------------  -----------------
       1        0.000076480253    -0.000039892101     0.000000000000
       2        0.000070432606    -0.000039761787     0.000000000000
       3       -0.000068285121     0.000045520553     0.000000000000
       4       -0.000078861352     0.000034197692     0.000000000000


*** tstop() called on c5-12.compute.lan at Wed Feb 10 11:31:07 2021
Module time:
	user time   =      29.64 seconds =       0.49 minutes
	system time =       0.28 seconds =       0.00 minutes
	total time  =         30 seconds =       0.50 minutes
Total time:
	user time   =    1789.91 seconds =      29.83 minutes
	system time =      16.36 seconds =       0.27 minutes
	total time  =       1850 seconds =      30.83 minutes

         ----------------------------------------------------------
                                   FINDIF
                     R. A. King and Jonathon Misiewicz
         ---------------------------------------------------------

  Computing second-derivative from gradients using projected, 
  symmetry-adapted, cartesian coordinates.

  10 gradients passed in, including the reference geometry.
  Generating complete list of displacements from unique ones.

    Operation 3 takes plus displacements of irrep Au to minus ones.
    Operation 2 takes plus displacements of irrep Bu to minus ones.

-------------------------------------------------------------


  ==> Harmonic Vibrational Analysis <==

  non-mass-weighted Hessian:       Symmetric? True   Hermitian? True   Lin Dep Dim?  6 (0)
  projection of translations (True) and rotations (True) removed 6 degrees of freedom (6)
  total projector:                 Symmetric? True   Hermitian? True   Lin Dep Dim?  6 (6)
  mass-weighted Hessian:           Symmetric? True   Hermitian? True   Lin Dep Dim?  6 (0)
  pre-proj  low-frequency mode:    0.0000i [cm^-1]
  pre-proj  low-frequency mode:    0.0000i [cm^-1]
  pre-proj  low-frequency mode:    0.0000i [cm^-1]
  pre-proj  low-frequency mode:    0.0000  [cm^-1]
  pre-proj  low-frequency mode:    0.0000  [cm^-1]
  pre-proj  low-frequency mode:    0.0000  [cm^-1]
  pre-proj  low-frequency mode:   97.1734  [cm^-1]
  pre-proj  all modes:['0.0000i' '0.0000i' '0.0000i' '0.0000' '0.0000' '0.0000' '97.1734'
 '137.7045' '248.5544' '533.0513' '643.9708' '668.8387']
  projected mass-weighted Hessian: Symmetric? True   Hermitian? True   Lin Dep Dim?  6 (6)
  post-proj low-frequency mode:    0.0000i [cm^-1] (TR)
  post-proj low-frequency mode:    0.0000i [cm^-1] (TR)
  post-proj low-frequency mode:    0.0000i [cm^-1] (TR)
  post-proj low-frequency mode:    0.0000  [cm^-1] (TR)
  post-proj low-frequency mode:    0.0000  [cm^-1] (TR)
  post-proj low-frequency mode:    0.0000  [cm^-1] (TR)
  post-proj low-frequency mode:   97.1734  [cm^-1] (V)
  post-proj  all modes:['0.0000i' '0.0000i' '0.0000i' '0.0000' '0.0000' '0.0000' '97.1734'
 '137.7045' '248.5544' '533.0513' '643.9708' '668.8387']

  Vibration                       7                   8                   9           
  Freq [cm^-1]                 97.1734             137.7045            248.5544       
  Irrep                           Au                  Bu                  Ag          
  Reduced mass [u]             31.9721             31.9721             31.9721        
  Force const [mDyne/A]         0.1779              0.3572              1.1638        
  Turning point v=0 [a0]        0.1969              0.1654              0.1231        
  RMS dev v=0 [a0 u^1/2]        0.7871              0.6612              0.4921        
  Char temp [K]                139.8109            198.1261            357.6144       
  ----------------------------------------------------------------------------------
      1   S               -0.00  0.00  0.50    0.19  0.46 -0.00   -0.38  0.13  0.00   
      2   S                0.00  0.00  0.50    0.19  0.46  0.00    0.38 -0.13 -0.00   
      3   S               -0.00 -0.00 -0.50   -0.19 -0.46  0.00   -0.30  0.50 -0.00   
      4   S                0.00  0.00 -0.50   -0.19 -0.46  0.00    0.30 -0.50  0.00   

  Vibration                       10                  11                  12          
  Freq [cm^-1]                 533.0513            643.9708            668.8387       
  Irrep                           Ag                  Bu                  Ag          
  Reduced mass [u]             31.9721             31.9721             31.9721        
  Force const [mDyne/A]         5.3525              7.8118              8.4268        
  Turning point v=0 [a0]        0.0841              0.0765              0.0750        
  RMS dev v=0 [a0 u^1/2]        0.3361              0.3057              0.3000        
  Char temp [K]                766.9422            926.5306            962.3100       
  ----------------------------------------------------------------------------------
      1   S                0.22  0.67  0.00    0.46 -0.19 -0.00    0.48 -0.20 -0.00   
      2   S               -0.22 -0.67  0.00    0.46 -0.19 -0.00   -0.48  0.20  0.00   
      3   S               -0.07 -0.05  0.00   -0.46  0.19 -0.00   -0.45  0.15  0.00   
      4   S                0.07  0.05 -0.00   -0.46  0.19  0.00    0.45 -0.15 -0.00   

  ==> Thermochemistry Components <==

  Entropy, S
    Electronic S            0.000 [cal/(mol K)]        0.000 [J/(mol K)]       0.00000000 [mEh/K] (multiplicity = 1)
    Translational S        40.451 [cal/(mol K)]      169.248 [J/(mol K)]       0.06446314 [mEh/K] (mol. weight = 127.8883 [u], P = 101325.00 [Pa])
    Rotational S           25.754 [cal/(mol K)]      107.756 [J/(mol K)]       0.04104192 [mEh/K] (symmetry no. = 2)
    Vibrational S           9.392 [cal/(mol K)]       39.297 [J/(mol K)]       0.01496731 [mEh/K]
  Total S                  75.598 [cal/(mol K)]      316.300 [J/(mol K)]       0.12047237 [mEh/K]
  Correction S              0.000 [cal/(mol K)]        0.000 [J/(mol K)]       0.00000000 [mEh/K]

  Constant volume heat capacity, Cv
    Electronic Cv           0.000 [cal/(mol K)]        0.000 [J/(mol K)]       0.00000000 [mEh/K]
    Translational Cv        2.981 [cal/(mol K)]       12.472 [J/(mol K)]       0.00475022 [mEh/K]
    Rotational Cv           2.981 [cal/(mol K)]       12.472 [J/(mol K)]       0.00475022 [mEh/K]
    Vibrational Cv          8.639 [cal/(mol K)]       36.146 [J/(mol K)]       0.01376734 [mEh/K]
  Total Cv                 14.601 [cal/(mol K)]       61.090 [J/(mol K)]       0.02326777 [mEh/K]
  Correction Cv             0.000 [cal/(mol K)]        0.000 [J/(mol K)]       0.00000000 [mEh/K]

  Constant pressure heat capacity, Cp
    Electronic Cp           0.000 [cal/(mol K)]        0.000 [J/(mol K)]       0.00000000 [mEh/K]
    Translational Cp        4.968 [cal/(mol K)]       20.786 [J/(mol K)]       0.00791703 [mEh/K]
    Rotational Cp           2.981 [cal/(mol K)]       12.472 [J/(mol K)]       0.00475022 [mEh/K]
    Vibrational Cp          8.639 [cal/(mol K)]       36.146 [J/(mol K)]       0.01376734 [mEh/K]
  Total Cp                 16.588 [cal/(mol K)]       69.404 [J/(mol K)]       0.02643458 [mEh/K]
  Correction Cp             0.000 [cal/(mol K)]        0.000 [J/(mol K)]       0.00000000 [mEh/K]

  ==> Thermochemistry Energy Analysis <==

  Raw electronic energy, E0
  Total E0, Electronic energy at well bottom at 0 [K]                -1592.78578555 [Eh]

  Zero-point energy, ZPE_vib = Sum_i nu_i / 2
    Electronic ZPE          0.000 [kcal/mol]        0.000 [kJ/mol]       0.00000000 [Eh]
    Translational ZPE       0.000 [kcal/mol]        0.000 [kJ/mol]       0.00000000 [Eh]
    Rotational ZPE          0.000 [kcal/mol]        0.000 [kJ/mol]       0.00000000 [Eh]
    Vibrational ZPE         3.330 [kcal/mol]       13.932 [kJ/mol]       0.00530652 [Eh]        1164.647 [cm^-1]
  Correction ZPE            3.330 [kcal/mol]       13.932 [kJ/mol]       0.00530652 [Eh]        1164.647 [cm^-1]
  Total ZPE, Electronic energy at 0 [K]                              -1592.78047903 [Eh]

  Thermal Energy, E (includes ZPE)
    Electronic E            0.000 [kcal/mol]        0.000 [kJ/mol]       0.00000000 [Eh]
    Translational E         0.889 [kcal/mol]        3.718 [kJ/mol]       0.00141628 [Eh]
    Rotational E            0.889 [kcal/mol]        3.718 [kJ/mol]       0.00141628 [Eh]
    Vibrational E           4.809 [kcal/mol]       20.122 [kJ/mol]       0.00766397 [Eh]
  Correction E              6.587 [kcal/mol]       27.559 [kJ/mol]       0.01049652 [Eh]
  Total E, Electronic energy at  298.15 [K]                          -1592.77528903 [Eh]

  Enthalpy, H_trans = E_trans + k_B * T
    Electronic H            0.000 [kcal/mol]        0.000 [kJ/mol]       0.00000000 [Eh]
    Translational H         1.481 [kcal/mol]        6.197 [kJ/mol]       0.00236046 [Eh]
    Rotational H            0.889 [kcal/mol]        3.718 [kJ/mol]       0.00141628 [Eh]
    Vibrational H           4.809 [kcal/mol]       20.122 [kJ/mol]       0.00766397 [Eh]
  Correction H              7.179 [kcal/mol]       30.038 [kJ/mol]       0.01144071 [Eh]
  Total H, Enthalpy at  298.15 [K]                                   -1592.77434485 [Eh]

  Gibbs free energy, G = H - T * S
    Electronic G            0.000 [kcal/mol]        0.000 [kJ/mol]       0.00000000 [Eh]
    Translational G       -10.579 [kcal/mol]      -44.264 [kJ/mol]      -0.01685922 [Eh]
    Rotational G           -6.790 [kcal/mol]      -28.409 [kJ/mol]      -0.01082037 [Eh]
    Vibrational G           2.009 [kcal/mol]        8.405 [kJ/mol]       0.00320147 [Eh]
  Correction G            -15.360 [kcal/mol]      -64.267 [kJ/mol]      -0.02447813 [Eh]
  Total G, Free enthalpy at  298.15 [K]                              -1592.81026368 [Eh]

    Psi4 stopped on: Wednesday, 10 February 2021 11:31AM
    Psi4 wall time for execution: 0:30:49.54

*** Psi4 exiting successfully. Buy a developer a beer!
