
    -----------------------------------------------------------------------
          Psi4: An Open-Source Ab Initio Electronic Structure Package
                               Psi4 1.4a2.dev191 

                         Git: Rev {master} 0ab5346 


    R. M. Parrish, L. A. Burns, D. G. A. Smith, A. C. Simmonett,
    A. E. DePrince III, E. G. Hohenstein, U. Bozkaya, A. Yu. Sokolov,
    R. Di Remigio, R. M. Richard, J. F. Gonthier, A. M. James,
    H. R. McAlexander, A. Kumar, M. Saitow, X. Wang, B. P. Pritchard,
    P. Verma, H. F. Schaefer III, K. Patkowski, R. A. King, E. F. Valeev,
    F. A. Evangelista, J. M. Turney, T. D. Crawford, and C. D. Sherrill,
    J. Chem. Theory Comput. 13(7) pp 3185--3197 (2017).
    (doi: 10.1021/acs.jctc.7b00174)


                         Additional Contributions by
    P. Kraus, H. Kruse, M. H. Lechner, M. C. Schieber, R. A. Shaw,
    A. Alenaizan, R. Galvelis, Z. L. Glick, S. Lehtola, and J. P. Misiewicz

    -----------------------------------------------------------------------


    Psi4 started on: Thursday, 11 February 2021 01:58PM

    Process ID: 185633
    Host:       c4-9.compute.lan
    PSIDATADIR: /apps/gb/PSI4/1.4.0/share/psi4
    Memory:     500.0 MiB
    Threads:    1
    
  ==> Input File <==

--------------------------------------------------------------------------
memory 16 GB

molecule  {
-1 2
S
S 1 r1
S 1 r2 2 a1
S 2 r3 1 a2 3 d1
r1 = 2.051
r2 = 2.024
r3 = 2.024
a1 = 105.1
a2 = 105.1
d1 = 180.0
}

set {
reference uks
basis aug-cc-pvtz
g_convergence gau_verytight
dft_spherical_points 590
dft_radial_points 99
}

optimize('wb97m-v')
frequencies('wb97m-v')

--------------------------------------------------------------------------

  Memory set to  14.901 GiB by Python driver.
gradient() will perform gradient computation by finite difference of analytic energies.

         ----------------------------------------------------------
                                   FINDIF
                     R. A. King and Jonathon Misiewicz
         ---------------------------------------------------------

  Using finite-differences of energies to determine gradients.
    Generating geometries for use with 3-point formula.
    Displacement size will be 5.00e-03.
    Number of atoms is 4.
    Number of symmetric SALCs is 3.
    Translations projected? 1. Rotations projected? 1.
    Number of geometries (including reference) is 7.

  //>>>>>>>>>>>>>>>>>>>>>>>>>>>>>>>>>>>//
  //    Loading displacement 1 of 7    //
  //<<<<<<<<<<<<<<<<<<<<<<<<<<<<<<<<<<<//

*** tstart() called on c4-9.compute.lan
*** at Thu Feb 11 13:58:49 2021

   => Loading Basis Set <=

    Name: AUG-CC-PVTZ
    Role: ORBITAL
    Keyword: BASIS
    atoms 1-4 entry S          line   906 file /apps/gb/PSI4/1.4.0/share/psi4/basis/aug-cc-pvtz.gbs 


         ---------------------------------------------------------
                                   SCF
               by Justin Turney, Rob Parrish, Andy Simmonett
                          and Daniel G. A. Smith
                              UKS Reference
                        1 Threads,  15258 MiB Core
         ---------------------------------------------------------

  ==> Geometry <==

    Molecular point group: c2h
    Full point group: C2h

    Geometry (in Angstrom), charge = -1, multiplicity = 2:

       Center              X                  Y                   Z               Mass       
    ------------   -----------------  -----------------  -----------------  -----------------
         S            0.000000000000     1.025500000000     0.000000000000    31.972071174400
         S            0.000000000000    -1.025500000000     0.000000000000    31.972071174400
         S           -1.954116604900     1.552761125493     0.000000000000    31.972071174400
         S            1.954116604900    -1.552761125493     0.000000000000    31.972071174400

  Running in c2h symmetry.

  Rotational constants: A =      0.43854  B =      0.03946  C =      0.03621 [cm^-1]
  Rotational constants: A =  13147.07888  B =   1183.12687  C =   1085.44584 [MHz]
  Nuclear repulsion =  310.800725288192837

  Charge       = -1
  Multiplicity = 2
  Electrons    = 65
  Nalpha       = 33
  Nbeta        = 32

  ==> Algorithm <==

  SCF Algorithm Type is DF.
  DIIS enabled.
  MOM disabled.
  Fractional occupation disabled.
  Guess Type is SAD.
  Energy threshold   = 1.00e-08
  Density threshold  = 1.00e-08
  Integral threshold = 0.00e+00

  ==> Primary Basis <==

  Basis Set: AUG-CC-PVTZ
    Blend: AUG-CC-PVTZ
    Number of shells: 64
    Number of basis function: 200
    Number of Cartesian functions: 236
    Spherical Harmonics?: true
    Max angular momentum: 3

  ==> DFT Potential <==

   => Composite Functional: WB97M-V <= 

    wB97M-V Hyb-GGA Exchange-Correlation Functional

    N. Mardirossian and M. Head-Gordon, J. Chem. Phys. 144, 214110 (2016)

    Deriv               =              1
    GGA                 =           TRUE
    Meta                =           TRUE

    Exchange Hybrid     =           TRUE
    MP2 Hybrid          =          FALSE

   => Exchange-Correlation Functionals <=

    1.0000   wB97M-V exchange-correlation functional

   => Exact (HF) Exchange <=

    0.8500            HF,LR [omega = 0.3000]
    0.1500               HF 

   => VV10 Non-Local Parameters <=

    VV10 B              =     6.0000E+00
    VV10 C              =     1.0000E-02

   => Molecular Quadrature <=

    Radial Scheme          =       TREUTLER
    Pruning Scheme         =           NONE
    Nuclear Scheme         =       TREUTLER

    BS radius alpha        =              1
    Pruning alpha          =              1
    Radial Points          =             99
    Spherical Points       =            590
    Total Points           =         225780
    Total Blocks           =           1818
    Max Points             =            256
    Max Functions          =            200
    Weights Tolerance      =       1.00E-15

   => Loading Basis Set <=

    Name: (AUG-CC-PVTZ AUX)
    Role: JKFIT
    Keyword: DF_BASIS_SCF
    atoms 1-4 entry S          line   730 file /apps/gb/PSI4/1.4.0/share/psi4/basis/aug-cc-pvtz-jkfit.gbs 

  ==> Pre-Iterations <==

   -------------------------------------------------------
    Irrep   Nso     Nmo     Nalpha   Nbeta   Ndocc  Nsocc
   -------------------------------------------------------
     Ag        66      66       0       0       0       0
     Bg        34      34       0       0       0       0
     Au        34      34       0       0       0       0
     Bu        66      66       0       0       0       0
   -------------------------------------------------------
    Total     200     200      33      32      32       1
   -------------------------------------------------------

  ==> Integral Setup <==

  ==> DiskDFJK: Density-Fitted J/K Matrices <==

    J tasked:                  Yes
    K tasked:                  Yes
    wK tasked:                 Yes
    Omega:               3.000E-01
    OpenMP threads:              1
    Integrals threads:           1
    Memory [MiB]:             8620
    Algorithm:                Core
    Integral Cache:           NONE
    Schwarz Cutoff:          1E-12
    Fitting Condition:       1E-10

   => Auxiliary Basis Set <=

  Basis Set: (AUG-CC-PVTZ AUX)
    Blend: AUG-CC-PVTZ-JKFIT
    Number of shells: 168
    Number of basis function: 584
    Number of Cartesian functions: 720
    Spherical Harmonics?: true
    Max angular momentum: 4

  Cached 100.0% of DFT collocation blocks in 2.757 [GiB].

  Minimum eigenvalue in the overlap matrix is 2.1178000566E-04.
  Using Symmetric Orthogonalization.

  SCF Guess: Superposition of Atomic Densities via on-the-fly atomic UHF.

  ==> Iterations <==

                           Total Energy        Delta E     RMS |[F,P]|

   @DF-UKS iter SAD: -1592.29028721213126   -1.59229e+03   0.00000e+00 
   @DF-UKS iter   1: -1592.72784098907573   -4.37554e-01   4.56178e-03 DIIS
   @DF-UKS iter   2: -1592.77370235631861   -4.58614e-02   3.45535e-03 DIIS
   @DF-UKS iter   3: -1592.83573230476463   -6.20299e-02   8.57242e-04 DIIS
   @DF-UKS iter   4: -1592.84006542635552   -4.33312e-03   1.26216e-04 DIIS
   @DF-UKS iter   5: -1592.84029808315495   -2.32657e-04   4.94979e-05 DIIS
   @DF-UKS iter   6: -1592.84033515701026   -3.70739e-05   1.45324e-05 DIIS
   @DF-UKS iter   7: -1592.84034210487812   -6.94787e-06   6.28469e-06 DIIS
   @DF-UKS iter   8: -1592.84034408311572   -1.97824e-06   2.11799e-06 DIIS
   @DF-UKS iter   9: -1592.84034436981619   -2.86700e-07   7.96812e-07 DIIS
   @DF-UKS iter  10: -1592.84034440018922   -3.03730e-08   2.57697e-07 DIIS
   @DF-UKS iter  11: -1592.84034440300707   -2.81784e-09   9.03612e-08 DIIS
   @DF-UKS iter  12: -1592.84034440328173   -2.74667e-10   2.46320e-08 DIIS
   @DF-UKS iter  13: -1592.84034440330151   -1.97815e-11   7.06875e-09 DIIS
  Energy and wave function converged.


  ==> Post-Iterations <==

   @Spin Contamination Metric:   5.125794981E-03
   @S^2 Expected:                7.500000000E-01
   @S^2 Observed:                7.551257950E-01
   @S   Expected:                5.000000000E-01
   @S   Observed:                5.000000000E-01

    Orbital Energies [Eh]
    ---------------------

    Alpha Occupied:                                                       

       1Bu   -89.117446     1Ag   -89.117445     2Bu   -89.027630  
       2Ag   -89.027630     3Ag    -8.024994     3Bu    -8.024931  
       4Ag    -7.939712     4Bu    -7.939710     5Ag    -5.934647  
       5Bu    -5.934438     1Au    -5.931781     1Bg    -5.931774  
       6Ag    -5.931007     6Bu    -5.930974     7Ag    -5.851638  
       7Bu    -5.851637     2Bg    -5.845074     2Au    -5.845074  
       8Bu    -5.843036     8Ag    -5.843036     9Ag    -0.809960  
       9Bu    -0.717818    10Ag    -0.595935    10Bu    -0.529823  
      11Ag    -0.354921    11Bu    -0.329188     3Au    -0.327004  
      12Ag    -0.260978     3Bg    -0.246453    12Bu    -0.189096  
      13Ag    -0.158087     4Au    -0.154990     4Bg    -0.125281  

    Alpha Virtual:                                                        

      13Bu     0.134932    14Bu     0.147781    14Ag     0.152545  
      15Ag     0.171193    15Bu     0.185172     5Au     0.187138  
      16Ag     0.195805     5Bg     0.203123     6Bg     0.207089  
      16Bu     0.213377    17Bu     0.221586     6Au     0.228604  
      17Ag     0.232448    18Bu     0.235660    18Ag     0.241391  
      19Ag     0.261905    19Bu     0.316000    20Ag     0.323747  
      20Bu     0.332963     7Au     0.344939     7Bg     0.360848  
      21Ag     0.398359    21Bu     0.399120    22Bu     0.415298  
       8Au     0.422912     8Bg     0.422917    22Ag     0.428152  
      23Bu     0.428582    23Ag     0.441322     9Au     0.458268  
      24Ag     0.487432     9Bg     0.488266    24Bu     0.491389  
      25Ag     0.505835    25Bu     0.518889    10Bg     0.520224  
      10Au     0.525127    26Bu     0.555439    26Ag     0.575673  
      11Au     0.611264    11Bg     0.676335    27Bu     0.684065  
      27Ag     0.691385    12Au     0.697780    28Ag     0.705148  
      28Bu     0.710528    12Bg     0.711237    13Au     0.716379  
      29Bu     0.723289    29Ag     0.728146    30Ag     0.733938  
      14Au     0.742548    30Bu     0.749814    31Ag     0.769386  
      32Ag     0.784897    13Bg     0.787031    31Bu     0.792015  
      33Ag     0.818082    14Bg     0.818737    15Au     0.825739  
      32Bu     0.838295    33Bu     0.846040    34Ag     0.846880  
      15Bg     0.871867    35Ag     0.891452    16Bg     0.892010  
      16Au     0.914436    34Bu     0.926118    17Bg     0.945831  
      17Au     0.948009    36Ag     0.955039    35Bu     0.959339  
      36Bu     0.974697    37Ag     0.984492    18Bg     0.993605  
      38Ag     0.997806    37Bu     1.009428    18Au     1.066580  
      38Bu     1.090748    39Ag     1.149256    39Bu     1.163953  
      19Au     1.168838    19Bg     1.173293    20Au     1.179092  
      40Ag     1.200232    40Bu     1.208810    20Bg     1.264058  
      41Ag     1.276487    41Bu     1.288483    42Ag     1.313978  
      21Au     1.323302    42Bu     1.328067    21Bg     1.343904  
      22Au     1.372072    43Bu     1.378396    22Bg     1.391914  
      43Ag     1.403558    44Ag     1.445463    44Bu     1.520179  
      45Ag     1.533124    45Bu     1.568731    46Ag     1.658718  
      46Bu     1.687345    23Au     1.967107    47Ag     1.973512  
      23Bg     1.995909    47Bu     2.017192    24Bg     2.020495  
      48Ag     2.028468    48Bu     2.029415    24Au     2.042905  
      25Au     2.061082    49Bu     2.064613    50Bu     2.073496  
      49Ag     2.073732    25Bg     2.089424    26Au     2.138668  
      50Ag     2.155588    27Au     2.161094    51Bu     2.171977  
      26Bg     2.189281    51Ag     2.195639    52Bu     2.208484  
      28Au     2.209769    27Bg     2.210584    52Ag     2.229432  
      28Bg     2.232492    29Au     2.243037    53Ag     2.265915  
      53Bu     2.290807    54Ag     2.325453    30Au     2.328992  
      54Bu     2.345764    55Ag     2.352423    55Bu     2.356449  
      29Bg     2.358370    56Bu     2.383889    31Au     2.403756  
      30Bg     2.415630    31Bg     2.436662    57Bu     2.450884  
      56Ag     2.459294    57Ag     2.482353    32Au     2.488260  
      58Ag     2.496872    33Au     2.501024    32Bg     2.509730  
      58Bu     2.515092    59Bu     2.572544    59Ag     2.597549  
      60Bu     2.605281    60Ag     2.672200    61Bu     2.704143  
      33Bg     2.707417    61Ag     2.710865    34Au     2.746641  
      34Bg     2.770177    62Ag     2.807103    62Bu     2.874292  
      63Ag     2.924858    63Bu     3.819660    64Ag     3.846500  
      64Bu     3.884977    65Ag     5.004897    65Bu     5.452860  
      66Ag     5.832754    66Bu     6.007232  

    Beta Occupied:                                                        

       1Bu   -89.115194     1Ag   -89.115193     2Bu   -89.026626  
       2Ag   -89.026625     3Ag    -8.022728     3Bu    -8.022642  
       4Ag    -7.938690     4Bu    -7.938687     5Ag    -5.933160  
       5Bu    -5.932948     6Ag    -5.929516     6Bu    -5.929485  
       1Au    -5.923664     1Bg    -5.923650     7Ag    -5.851090  
       7Bu    -5.851089     8Ag    -5.842342     8Bu    -5.842342  
       2Bg    -5.841310     2Au    -5.841310     9Ag    -0.802006  
       9Bu    -0.710447    10Ag    -0.588904    10Bu    -0.513477  
      11Ag    -0.347890    11Bu    -0.323791     3Au    -0.301195  
      12Ag    -0.254485     3Bg    -0.219602    12Bu    -0.185546  
      13Ag    -0.154839     4Au    -0.113692  

    Beta Virtual:                                                         

       4Bg     0.083496    13Bu     0.134857    14Bu     0.147821  
      14Ag     0.152445    15Ag     0.170788     5Au     0.186380  
      15Bu     0.188500    16Ag     0.195872     5Bg     0.204169  
       6Bg     0.206856    16Bu     0.216252    17Bu     0.221427  
       6Au     0.227704    17Ag     0.232346    18Bu     0.237265  
      18Ag     0.244585    19Ag     0.262690    19Bu     0.316589  
      20Ag     0.324134    20Bu     0.333129     7Au     0.350265  
       7Bg     0.365235    21Ag     0.400149    21Bu     0.400544  
      22Bu     0.417825     8Bg     0.425761    22Ag     0.429231  
       8Au     0.429986    23Bu     0.430239    23Ag     0.443064  
       9Au     0.461214    24Ag     0.488029     9Bg     0.490258  
      24Bu     0.492065    25Ag     0.507041    25Bu     0.519758  
      10Bg     0.520197    10Au     0.527709    26Bu     0.556472  
      26Ag     0.576665    11Au     0.616960    11Bg     0.680299  
      27Bu     0.683891    27Ag     0.692116    12Au     0.703418  
      28Ag     0.706746    28Bu     0.713845    12Bg     0.716555  
      13Au     0.721666    29Bu     0.724886    29Ag     0.730080  
      30Ag     0.735264    14Au     0.749584    30Bu     0.751657  
      31Ag     0.771902    32Ag     0.786910    13Bg     0.789186  
      31Bu     0.793778    33Ag     0.819923    14Bg     0.822290  
      15Au     0.830274    32Bu     0.843015    33Bu     0.852281  
      34Ag     0.854218    15Bg     0.878451    35Ag     0.894147  
      16Bg     0.901050    16Au     0.922559    34Bu     0.928335  
      17Au     0.949790    17Bg     0.951529    36Ag     0.957750  
      35Bu     0.964526    36Bu     0.976489    37Ag     0.987663  
      18Bg     0.995363    38Ag     1.000056    37Bu     1.011274  
      18Au     1.068622    38Bu     1.093055    39Ag     1.151300  
      39Bu     1.165447    19Au     1.172422    19Bg     1.177062  
      20Au     1.183246    40Ag     1.202341    40Bu     1.211454  
      20Bg     1.267218    41Ag     1.277214    41Bu     1.288960  
      42Ag     1.316486    21Au     1.326261    42Bu     1.329046  
      21Bg     1.349653    22Au     1.377230    43Bu     1.380955  
      22Bg     1.397535    43Ag     1.407912    44Ag     1.446411  
      44Bu     1.520938    45Ag     1.538611    45Bu     1.578755  
      46Ag     1.669419    46Bu     1.701976    23Au     1.979691  
      47Ag     1.983569    23Bg     2.010886    47Bu     2.026648  
      24Bg     2.029784    48Bu     2.035745    48Ag     2.038781  
      24Au     2.052838    49Bu     2.071221    25Au     2.071650  
      49Ag     2.075520    50Bu     2.075523    25Bg     2.106710  
      26Au     2.155419    50Ag     2.164576    27Au     2.172431  
      51Bu     2.175582    51Ag     2.201755    26Bg     2.203955  
      52Bu     2.214463    27Bg     2.219195    28Au     2.224180  
      52Ag     2.235043    28Bg     2.244089    29Au     2.266518  
      53Ag     2.268627    53Bu     2.294351    54Ag     2.328394  
      30Au     2.337260    54Bu     2.347420    55Ag     2.359721  
      55Bu     2.362387    29Bg     2.367889    56Bu     2.390921  
      31Au     2.410090    30Bg     2.431943    31Bg     2.446659  
      57Bu     2.456504    56Ag     2.465184    57Ag     2.491424  
      32Au     2.497801    58Ag     2.499877    33Au     2.513984  
      32Bg     2.519826    58Bu     2.524416    59Bu     2.580537  
      59Ag     2.605077    60Bu     2.609872    60Ag     2.675079  
      61Bu     2.707680    61Ag     2.715292    33Bg     2.723974  
      34Au     2.758945    34Bg     2.782213    62Ag     2.808833  
      62Bu     2.875651    63Ag     2.926760    63Bu     3.822258  
      64Ag     3.849107    64Bu     3.887635    65Ag     5.011117  
      65Bu     5.457609    66Ag     5.839267    66Bu     6.015724  

    Final Occupation by Irrep:
             Ag    Bg    Au    Bu 
    DOCC [    13,    3,    4,   12 ]
    SOCC [     0,    1,    0,    0 ]

  @DF-UKS Final Energy: -1592.84034440330151

   => Energetics <=

    Nuclear Repulsion Energy =            310.8007252881928366
    One-Electron Energy =               -2830.6124312595056836
    Two-Electron Energy =                1005.9839143267405461
    DFT Exchange-Correlation Energy =     -79.2768522367872208
    Empirical Dispersion Energy =           0.0000000000000000
    VV10 Nonlocal Energy =                  0.2642994780582061
    Total Energy =                      -1592.8403444033010601

  UHF NO Occupations:
  HONO-2 :    3 Bg 1.9995557
  HONO-1 :    4 Au 1.9985284
  HONO-0 :    4 Bg 1.0000000
  LUNO+0 :    5 Au 0.0014716
  LUNO+1 :    5 Bg 0.0004443
  LUNO+2 :    6 Au 0.0003304
  LUNO+3 :   13 Bu 0.0001340


Computation Completed


Properties will be evaluated at   0.000000,   0.000000,   0.000000 [a0]

Properties computed using the SCF density matrix

  Nuclear Dipole Moment: [e a0]
     X:     0.0000      Y:     0.0000      Z:     0.0000

  Electronic Dipole Moment: [e a0]
     X:     0.0000      Y:     0.0000      Z:     0.0000

  Dipole Moment: [e a0]
     X:     0.0000      Y:     0.0000      Z:     0.0000     Total:     0.0000

  Dipole Moment: [D]
     X:     0.0000      Y:     0.0000      Z:     0.0000     Total:     0.0000


*** tstop() called on c4-9.compute.lan at Thu Feb 11 14:01:39 2021
Module time:
	user time   =     166.99 seconds =       2.78 minutes
	system time =       2.27 seconds =       0.04 minutes
	total time  =        170 seconds =       2.83 minutes
Total time:
	user time   =     166.99 seconds =       2.78 minutes
	system time =       2.27 seconds =       0.04 minutes
	total time  =        170 seconds =       2.83 minutes

  //>>>>>>>>>>>>>>>>>>>>>>>>>>>>>>>>>>>//
  //    Loading displacement 2 of 7    //
  //<<<<<<<<<<<<<<<<<<<<<<<<<<<<<<<<<<<//

*** tstart() called on c4-9.compute.lan
*** at Thu Feb 11 14:01:39 2021

   => Loading Basis Set <=

    Name: AUG-CC-PVTZ
    Role: ORBITAL
    Keyword: BASIS
    atoms 1-4 entry S          line   906 file /apps/gb/PSI4/1.4.0/share/psi4/basis/aug-cc-pvtz.gbs 


         ---------------------------------------------------------
                                   SCF
               by Justin Turney, Rob Parrish, Andy Simmonett
                          and Daniel G. A. Smith
                              UKS Reference
                        1 Threads,  15258 MiB Core
         ---------------------------------------------------------

  ==> Geometry <==

    Molecular point group: c2h
    Full point group: C2h

    Geometry (in Angstrom), charge = -1, multiplicity = 2:

       Center              X                  Y                   Z               Mass       
    ------------   -----------------  -----------------  -----------------  -----------------
         S           -0.000306053994     1.025500000000     0.000000000000    31.972071174400
         S            0.000306053994    -1.025500000000     0.000000000000    31.972071174400
         S           -1.954038374509     1.552859576763     0.000000000000    31.972071174400
         S            1.954038374509    -1.552859576763     0.000000000000    31.972071174400

  Running in c2h symmetry.

  Rotational constants: A =      0.43881  B =      0.03946  C =      0.03621 [cm^-1]
  Rotational constants: A =  13155.09179  B =   1183.06200  C =   1085.44583 [MHz]
  Nuclear repulsion =  310.817974238186707

  Charge       = -1
  Multiplicity = 2
  Electrons    = 65
  Nalpha       = 33
  Nbeta        = 32

  ==> Algorithm <==

  SCF Algorithm Type is DF.
  DIIS enabled.
  MOM disabled.
  Fractional occupation disabled.
  Guess Type is SAD.
  Energy threshold   = 1.00e-08
  Density threshold  = 1.00e-08
  Integral threshold = 0.00e+00

  ==> Primary Basis <==

  Basis Set: AUG-CC-PVTZ
    Blend: AUG-CC-PVTZ
    Number of shells: 64
    Number of basis function: 200
    Number of Cartesian functions: 236
    Spherical Harmonics?: true
    Max angular momentum: 3

  ==> DFT Potential <==

   => Composite Functional: WB97M-V <= 

    wB97M-V Hyb-GGA Exchange-Correlation Functional

    N. Mardirossian and M. Head-Gordon, J. Chem. Phys. 144, 214110 (2016)

    Deriv               =              1
    GGA                 =           TRUE
    Meta                =           TRUE

    Exchange Hybrid     =           TRUE
    MP2 Hybrid          =          FALSE

   => Exchange-Correlation Functionals <=

    1.0000   wB97M-V exchange-correlation functional

   => Exact (HF) Exchange <=

    0.8500            HF,LR [omega = 0.3000]
    0.1500               HF 

   => VV10 Non-Local Parameters <=

    VV10 B              =     6.0000E+00
    VV10 C              =     1.0000E-02

   => Molecular Quadrature <=

    Radial Scheme          =       TREUTLER
    Pruning Scheme         =           NONE
    Nuclear Scheme         =       TREUTLER

    BS radius alpha        =              1
    Pruning alpha          =              1
    Radial Points          =             99
    Spherical Points       =            590
    Total Points           =         225784
    Total Blocks           =           1840
    Max Points             =            256
    Max Functions          =            200
    Weights Tolerance      =       1.00E-15

   => Loading Basis Set <=

    Name: (AUG-CC-PVTZ AUX)
    Role: JKFIT
    Keyword: DF_BASIS_SCF
    atoms 1-4 entry S          line   730 file /apps/gb/PSI4/1.4.0/share/psi4/basis/aug-cc-pvtz-jkfit.gbs 

  ==> Pre-Iterations <==

   -------------------------------------------------------
    Irrep   Nso     Nmo     Nalpha   Nbeta   Ndocc  Nsocc
   -------------------------------------------------------
     Ag        66      66       0       0       0       0
     Bg        34      34       0       0       0       0
     Au        34      34       0       0       0       0
     Bu        66      66       0       0       0       0
   -------------------------------------------------------
    Total     200     200      33      32      32       1
   -------------------------------------------------------

  ==> Integral Setup <==

  ==> DiskDFJK: Density-Fitted J/K Matrices <==

    J tasked:                  Yes
    K tasked:                  Yes
    wK tasked:                 Yes
    Omega:               3.000E-01
    OpenMP threads:              1
    Integrals threads:           1
    Memory [MiB]:             8621
    Algorithm:                Core
    Integral Cache:           NONE
    Schwarz Cutoff:          1E-12
    Fitting Condition:       1E-10

   => Auxiliary Basis Set <=

  Basis Set: (AUG-CC-PVTZ AUX)
    Blend: AUG-CC-PVTZ-JKFIT
    Number of shells: 168
    Number of basis function: 584
    Number of Cartesian functions: 720
    Spherical Harmonics?: true
    Max angular momentum: 4

  Cached 100.0% of DFT collocation blocks in 2.756 [GiB].

  Minimum eigenvalue in the overlap matrix is 2.1164782806E-04.
  Using Symmetric Orthogonalization.

  SCF Guess: Superposition of Atomic Densities via on-the-fly atomic UHF.

  ==> Iterations <==

                           Total Energy        Delta E     RMS |[F,P]|

   @DF-UKS iter SAD: -1592.29108075436034   -1.59229e+03   0.00000e+00 
   @DF-UKS iter   1: -1592.72789331830381   -4.36813e-01   4.56127e-03 DIIS
   @DF-UKS iter   2: -1592.77379551925947   -4.59022e-02   3.45369e-03 DIIS
   @DF-UKS iter   3: -1592.83574785054884   -6.19523e-02   8.57155e-04 DIIS
   @DF-UKS iter   4: -1592.84008002324163   -4.33217e-03   1.26215e-04 DIIS
   @DF-UKS iter   5: -1592.84031266347324   -2.32640e-04   4.94946e-05 DIIS
   @DF-UKS iter   6: -1592.84034971683150   -3.70534e-05   1.45265e-05 DIIS
   @DF-UKS iter   7: -1592.84035665548299   -6.93865e-06   6.28029e-06 DIIS
   @DF-UKS iter   8: -1592.84035862972519   -1.97424e-06   2.11592e-06 DIIS
   @DF-UKS iter   9: -1592.84035891566418   -2.85939e-07   7.96196e-07 DIIS
   @DF-UKS iter  10: -1592.84035894594899   -3.02848e-08   2.57797e-07 DIIS
   @DF-UKS iter  11: -1592.84035894876229   -2.81329e-09   9.03314e-08 DIIS
   @DF-UKS iter  12: -1592.84035894903809   -2.75804e-10   2.46091e-08 DIIS
   @DF-UKS iter  13: -1592.84035894905628   -1.81899e-11   7.06033e-09 DIIS
  Energy and wave function converged.


  ==> Post-Iterations <==

   @Spin Contamination Metric:   5.126899184E-03
   @S^2 Expected:                7.500000000E-01
   @S^2 Observed:                7.551268992E-01
   @S   Expected:                5.000000000E-01
   @S   Observed:                5.000000000E-01

    Orbital Energies [Eh]
    ---------------------

    Alpha Occupied:                                                       

       1Bu   -89.117409     1Ag   -89.117408     2Bu   -89.027623  
       2Ag   -89.027622     3Ag    -8.024962     3Bu    -8.024900  
       4Ag    -7.939711     4Bu    -7.939709     5Ag    -5.934616  
       5Bu    -5.934406     1Au    -5.931750     1Bg    -5.931743  
       6Ag    -5.930975     6Bu    -5.930942     7Ag    -5.851635  
       7Bu    -5.851634     2Bg    -5.845073     2Au    -5.845072  
       8Bu    -5.843035     8Ag    -5.843035     9Ag    -0.809983  
       9Bu    -0.717901    10Ag    -0.595954    10Bu    -0.529769  
      11Ag    -0.354935    11Bu    -0.329193     3Au    -0.327010  
      12Ag    -0.260989     3Bg    -0.246493    12Bu    -0.189129  
      13Ag    -0.158070     4Au    -0.154983     4Bg    -0.125234  

    Alpha Virtual:                                                        

      13Bu     0.134935    14Bu     0.147797    14Ag     0.152547  
      15Ag     0.171200    15Bu     0.185173     5Au     0.187136  
      16Ag     0.195804     5Bg     0.203123     6Bg     0.207092  
      16Bu     0.213428    17Bu     0.221593     6Au     0.228606  
      17Ag     0.232476    18Bu     0.235673    18Ag     0.241450  
      19Ag     0.261922    19Bu     0.316000    20Ag     0.323753  
      20Bu     0.332965     7Au     0.344940     7Bg     0.360852  
      21Ag     0.398373    21Bu     0.399104    22Bu     0.415353  
       8Bg     0.422919     8Au     0.422953    22Ag     0.428143  
      23Bu     0.428571    23Ag     0.441337     9Au     0.458248  
      24Ag     0.487419     9Bg     0.488278    24Bu     0.491387  
      25Ag     0.505867    25Bu     0.518923    10Bg     0.520232  
      10Au     0.525123    26Bu     0.555467    26Ag     0.575687  
      11Au     0.611268    11Bg     0.676315    27Bu     0.684053  
      27Ag     0.691382    12Au     0.697790    28Ag     0.705143  
      28Bu     0.710550    12Bg     0.711252    13Au     0.716399  
      29Bu     0.723285    29Ag     0.728128    30Ag     0.733945  
      14Au     0.742547    30Bu     0.749804    31Ag     0.769390  
      32Ag     0.784880    13Bg     0.787025    31Bu     0.791975  
      33Ag     0.818076    14Bg     0.818726    15Au     0.825725  
      32Bu     0.838295    33Bu     0.846102    34Ag     0.846891  
      15Bg     0.871871    35Ag     0.891511    16Bg     0.892075  
      16Au     0.914497    34Bu     0.926157    17Bg     0.945873  
      17Au     0.948011    36Ag     0.955110    35Bu     0.959381  
      36Bu     0.974700    37Ag     0.984557    18Bg     0.993621  
      38Ag     0.997832    37Bu     1.009460    18Au     1.066575  
      38Bu     1.090847    39Ag     1.149313    39Bu     1.164032  
      19Au     1.168848    19Bg     1.173382    20Au     1.179167  
      40Ag     1.200277    40Bu     1.208838    20Bg     1.264024  
      41Ag     1.276585    41Bu     1.288447    42Ag     1.314036  
      21Au     1.323409    42Bu     1.328180    21Bg     1.343944  
      22Au     1.372105    43Bu     1.378437    22Bg     1.391979  
      43Ag     1.403613    44Ag     1.445559    44Bu     1.520293  
      45Ag     1.533170    45Bu     1.568777    46Ag     1.658782  
      46Bu     1.687342    23Au     1.967127    47Ag     1.973479  
      23Bg     1.995905    47Bu     2.017173    24Bg     2.020493  
      48Ag     2.028463    48Bu     2.029416    24Au     2.042954  
      25Au     2.061034    49Bu     2.064614    50Bu     2.073611  
      49Ag     2.073649    25Bg     2.089482    26Au     2.138668  
      50Ag     2.155554    27Au     2.161128    51Bu     2.171867  
      26Bg     2.189279    51Ag     2.195657    52Bu     2.208459  
      28Au     2.209728    27Bg     2.210557    52Ag     2.229407  
      28Bg     2.232465    29Au     2.243041    53Ag     2.265915  
      53Bu     2.290791    54Ag     2.325445    30Au     2.328985  
      54Bu     2.345759    55Ag     2.352423    55Bu     2.356399  
      29Bg     2.358358    56Bu     2.383899    31Au     2.403703  
      30Bg     2.415657    31Bg     2.436787    57Bu     2.450934  
      56Ag     2.459391    57Ag     2.482414    32Au     2.488355  
      58Ag     2.496925    33Au     2.501158    32Bg     2.509856  
      58Bu     2.515243    59Bu     2.572647    59Ag     2.597593  
      60Bu     2.605415    60Ag     2.672285    61Bu     2.704649  
      33Bg     2.707446    61Ag     2.711311    34Au     2.746915  
      34Bg     2.770398    62Ag     2.807466    62Bu     2.874419  
      63Ag     2.924682    63Bu     3.819782    64Ag     3.846806  
      64Bu     3.885318    65Ag     5.005903    65Bu     5.452960  
      66Ag     5.832973    66Bu     6.007115  

    Beta Occupied:                                                        

       1Bu   -89.115157     1Ag   -89.115157     2Bu   -89.026618  
       2Ag   -89.026617     3Ag    -8.022697     3Bu    -8.022611  
       4Ag    -7.938688     4Bu    -7.938685     5Ag    -5.933129  
       5Bu    -5.932916     6Ag    -5.929484     6Bu    -5.929453  
       1Au    -5.923633     1Bg    -5.923619     7Ag    -5.851086  
       7Bu    -5.851086     8Ag    -5.842341     8Bu    -5.842341  
       2Bg    -5.841309     2Au    -5.841309     9Ag    -0.802030  
       9Bu    -0.710533    10Ag    -0.588923    10Bu    -0.513423  
      11Ag    -0.347904    11Bu    -0.323796     3Au    -0.301209  
      12Ag    -0.254497     3Bg    -0.219646    12Bu    -0.185577  
      13Ag    -0.154820     4Au    -0.113679  

    Beta Virtual:                                                         

       4Bg     0.083541    13Bu     0.134859    14Bu     0.147836  
      14Ag     0.152446    15Ag     0.170794     5Au     0.186376  
      15Bu     0.188499    16Ag     0.195870     5Bg     0.204171  
       6Bg     0.206856    16Bu     0.216294    17Bu     0.221440  
       6Au     0.227705    17Ag     0.232366    18Bu     0.237282  
      18Ag     0.244646    19Ag     0.262711    19Bu     0.316588  
      20Ag     0.324141    20Bu     0.333131     7Au     0.350267  
       7Bg     0.365239    21Ag     0.400162    21Bu     0.400529  
      22Bu     0.417881     8Bg     0.425765    22Ag     0.429222  
       8Au     0.430026    23Bu     0.430228    23Ag     0.443079  
       9Au     0.461196    24Ag     0.488015     9Bg     0.490270  
      24Bu     0.492061    25Ag     0.507073    25Bu     0.519792  
      10Bg     0.520204    10Au     0.527707    26Bu     0.556500  
      26Ag     0.576680    11Au     0.616965    11Bg     0.680278  
      27Bu     0.683879    27Ag     0.692115    12Au     0.703425  
      28Ag     0.706739    28Bu     0.713867    12Bg     0.716573  
      13Au     0.721685    29Bu     0.724884    29Ag     0.730061  
      30Ag     0.735269    14Au     0.749587    30Bu     0.751647  
      31Ag     0.771908    32Ag     0.786897    13Bg     0.789182  
      31Bu     0.793736    33Ag     0.819914    14Bg     0.822279  
      15Au     0.830261    32Bu     0.843003    33Bu     0.852359  
      34Ag     0.854232    15Bg     0.878455    35Ag     0.894209  
      16Bg     0.901114    16Au     0.922618    34Bu     0.928371  
      17Au     0.949793    17Bg     0.951570    36Ag     0.957820  
      35Bu     0.964555    36Bu     0.976502    37Ag     0.987729  
      18Bg     0.995380    38Ag     1.000082    37Bu     1.011307  
      18Au     1.068618    38Bu     1.093155    39Ag     1.151358  
      39Bu     1.165527    19Au     1.172434    19Bg     1.177151  
      20Au     1.183319    40Ag     1.202386    40Bu     1.211482  
      20Bg     1.267186    41Ag     1.277313    41Bu     1.288925  
      42Ag     1.316545    21Au     1.326370    42Bu     1.329159  
      21Bg     1.349693    22Au     1.377262    43Bu     1.380998  
      22Bg     1.397603    43Ag     1.407966    44Ag     1.446503  
      44Bu     1.521053    45Ag     1.538662    45Bu     1.578800  
      46Ag     1.669483    46Bu     1.701969    23Au     1.979711  
      47Ag     1.983538    23Bg     2.010882    47Bu     2.026625  
      24Bg     2.029783    48Bu     2.035743    48Ag     2.038778  
      24Au     2.052886    49Bu     2.071305    25Au     2.071592  
      49Ag     2.075436    50Bu     2.075566    25Bg     2.106762  
      26Au     2.155443    50Ag     2.164534    27Au     2.172458  
      51Bu     2.175473    51Ag     2.201784    26Bg     2.203955  
      52Bu     2.214438    27Bg     2.219158    28Au     2.224125  
      52Ag     2.235020    28Bg     2.244076    29Au     2.266525  
      53Ag     2.268622    53Bu     2.294334    54Ag     2.328386  
      30Au     2.337256    54Bu     2.347417    55Ag     2.359723  
      55Bu     2.362334    29Bg     2.367876    56Bu     2.390939  
      31Au     2.410038    30Bg     2.431977    31Bg     2.446774  
      57Bu     2.456559    56Ag     2.465282    57Ag     2.491465  
      32Au     2.497893    58Ag     2.499943    33Au     2.514122  
      32Bg     2.519960    58Bu     2.524560    59Bu     2.580642  
      59Ag     2.605124    60Bu     2.610000    60Ag     2.675164  
      61Bu     2.708189    61Ag     2.715742    33Bg     2.724000  
      34Au     2.759221    34Bg     2.782436    62Ag     2.809196  
      62Bu     2.875778    63Ag     2.926584    63Bu     3.822380  
      64Ag     3.849414    64Bu     3.887976    65Ag     5.012122  
      65Bu     5.457710    66Ag     5.839488    66Bu     6.015606  

    Final Occupation by Irrep:
             Ag    Bg    Au    Bu 
    DOCC [    13,    3,    4,   12 ]
    SOCC [     0,    1,    0,    0 ]

  @DF-UKS Final Energy: -1592.84035894905628

   => Energetics <=

    Nuclear Repulsion Energy =            310.8179742381867072
    One-Electron Energy =               -2830.6472838380150279
    Two-Electron Energy =                1006.0016911255282821
    DFT Exchange-Correlation Energy =     -79.2770397287503954
    Empirical Dispersion Energy =           0.0000000000000000
    VV10 Nonlocal Energy =                  0.2642992539938462
    Total Energy =                      -1592.8403589490565082

  UHF NO Occupations:
  HONO-2 :    3 Bg 1.9995558
  HONO-1 :    4 Au 1.9985277
  HONO-0 :    4 Bg 1.0000000
  LUNO+0 :    5 Au 0.0014723
  LUNO+1 :    5 Bg 0.0004442
  LUNO+2 :    6 Au 0.0003302
  LUNO+3 :   13 Bu 0.0001340


Computation Completed


Properties will be evaluated at   0.000000,   0.000000,   0.000000 [a0]

Properties computed using the SCF density matrix

  Nuclear Dipole Moment: [e a0]
     X:     0.0000      Y:     0.0000      Z:     0.0000

  Electronic Dipole Moment: [e a0]
     X:     0.0000      Y:     0.0000      Z:     0.0000

  Dipole Moment: [e a0]
     X:     0.0000      Y:     0.0000      Z:     0.0000     Total:     0.0000

  Dipole Moment: [D]
     X:     0.0000      Y:     0.0000      Z:     0.0000     Total:     0.0000


*** tstop() called on c4-9.compute.lan at Thu Feb 11 14:04:32 2021
Module time:
	user time   =     170.99 seconds =       2.85 minutes
	system time =       1.45 seconds =       0.02 minutes
	total time  =        173 seconds =       2.88 minutes
Total time:
	user time   =     337.99 seconds =       5.63 minutes
	system time =       3.72 seconds =       0.06 minutes
	total time  =        343 seconds =       5.72 minutes

  //>>>>>>>>>>>>>>>>>>>>>>>>>>>>>>>>>>>//
  //    Loading displacement 3 of 7    //
  //<<<<<<<<<<<<<<<<<<<<<<<<<<<<<<<<<<<//

*** tstart() called on c4-9.compute.lan
*** at Thu Feb 11 14:04:32 2021

   => Loading Basis Set <=

    Name: AUG-CC-PVTZ
    Role: ORBITAL
    Keyword: BASIS
    atoms 1-4 entry S          line   906 file /apps/gb/PSI4/1.4.0/share/psi4/basis/aug-cc-pvtz.gbs 


         ---------------------------------------------------------
                                   SCF
               by Justin Turney, Rob Parrish, Andy Simmonett
                          and Daniel G. A. Smith
                              UKS Reference
                        1 Threads,  15258 MiB Core
         ---------------------------------------------------------

  ==> Geometry <==

    Molecular point group: c2h
    Full point group: C2h

    Geometry (in Angstrom), charge = -1, multiplicity = 2:

       Center              X                  Y                   Z               Mass       
    ------------   -----------------  -----------------  -----------------  -----------------
         S            0.000306053994     1.025500000000     0.000000000000    31.972071174400
         S           -0.000306053994    -1.025500000000     0.000000000000    31.972071174400
         S           -1.954194835290     1.552662674223     0.000000000000    31.972071174400
         S            1.954194835290    -1.552662674223     0.000000000000    31.972071174400

  Running in c2h symmetry.

  Rotational constants: A =      0.43827  B =      0.03947  C =      0.03621 [cm^-1]
  Rotational constants: A =  13139.07388  B =   1183.19172  C =   1085.44583 [MHz]
  Nuclear repulsion =  310.783477564993007

  Charge       = -1
  Multiplicity = 2
  Electrons    = 65
  Nalpha       = 33
  Nbeta        = 32

  ==> Algorithm <==

  SCF Algorithm Type is DF.
  DIIS enabled.
  MOM disabled.
  Fractional occupation disabled.
  Guess Type is SAD.
  Energy threshold   = 1.00e-08
  Density threshold  = 1.00e-08
  Integral threshold = 0.00e+00

  ==> Primary Basis <==

  Basis Set: AUG-CC-PVTZ
    Blend: AUG-CC-PVTZ
    Number of shells: 64
    Number of basis function: 200
    Number of Cartesian functions: 236
    Spherical Harmonics?: true
    Max angular momentum: 3

  ==> DFT Potential <==

   => Composite Functional: WB97M-V <= 

    wB97M-V Hyb-GGA Exchange-Correlation Functional

    N. Mardirossian and M. Head-Gordon, J. Chem. Phys. 144, 214110 (2016)

    Deriv               =              1
    GGA                 =           TRUE
    Meta                =           TRUE

    Exchange Hybrid     =           TRUE
    MP2 Hybrid          =          FALSE

   => Exchange-Correlation Functionals <=

    1.0000   wB97M-V exchange-correlation functional

   => Exact (HF) Exchange <=

    0.8500            HF,LR [omega = 0.3000]
    0.1500               HF 

   => VV10 Non-Local Parameters <=

    VV10 B              =     6.0000E+00
    VV10 C              =     1.0000E-02

   => Molecular Quadrature <=

    Radial Scheme          =       TREUTLER
    Pruning Scheme         =           NONE
    Nuclear Scheme         =       TREUTLER

    BS radius alpha        =              1
    Pruning alpha          =              1
    Radial Points          =             99
    Spherical Points       =            590
    Total Points           =         225774
    Total Blocks           =           1852
    Max Points             =            254
    Max Functions          =            200
    Weights Tolerance      =       1.00E-15

   => Loading Basis Set <=

    Name: (AUG-CC-PVTZ AUX)
    Role: JKFIT
    Keyword: DF_BASIS_SCF
    atoms 1-4 entry S          line   730 file /apps/gb/PSI4/1.4.0/share/psi4/basis/aug-cc-pvtz-jkfit.gbs 

  ==> Pre-Iterations <==

   -------------------------------------------------------
    Irrep   Nso     Nmo     Nalpha   Nbeta   Ndocc  Nsocc
   -------------------------------------------------------
     Ag        66      66       0       0       0       0
     Bg        34      34       0       0       0       0
     Au        34      34       0       0       0       0
     Bu        66      66       0       0       0       0
   -------------------------------------------------------
    Total     200     200      33      32      32       1
   -------------------------------------------------------

  ==> Integral Setup <==

  ==> DiskDFJK: Density-Fitted J/K Matrices <==

    J tasked:                  Yes
    K tasked:                  Yes
    wK tasked:                 Yes
    Omega:               3.000E-01
    OpenMP threads:              1
    Integrals threads:           1
    Memory [MiB]:             8620
    Algorithm:                Core
    Integral Cache:           NONE
    Schwarz Cutoff:          1E-12
    Fitting Condition:       1E-10

   => Auxiliary Basis Set <=

  Basis Set: (AUG-CC-PVTZ AUX)
    Blend: AUG-CC-PVTZ-JKFIT
    Number of shells: 168
    Number of basis function: 584
    Number of Cartesian functions: 720
    Spherical Harmonics?: true
    Max angular momentum: 4

  Cached 100.0% of DFT collocation blocks in 2.757 [GiB].

  Minimum eigenvalue in the overlap matrix is 2.1191209487E-04.
  Using Symmetric Orthogonalization.

  SCF Guess: Superposition of Atomic Densities via on-the-fly atomic UHF.

  ==> Iterations <==

                           Total Energy        Delta E     RMS |[F,P]|

   @DF-UKS iter SAD: -1592.28949399198700   -1.59229e+03   0.00000e+00 
   @DF-UKS iter   1: -1592.72778841793024   -4.38294e-01   4.56229e-03 DIIS
   @DF-UKS iter   2: -1592.77360893748528   -4.58205e-02   3.45701e-03 DIIS
   @DF-UKS iter   3: -1592.83571655816536   -6.21076e-02   8.57327e-04 DIIS
   @DF-UKS iter   4: -1592.84005062469419   -4.33407e-03   1.26217e-04 DIIS
   @DF-UKS iter   5: -1592.84028329839884   -2.32674e-04   4.95013e-05 DIIS
   @DF-UKS iter   6: -1592.84032039281260   -3.70944e-05   1.45383e-05 DIIS
   @DF-UKS iter   7: -1592.84032734991820   -6.95711e-06   6.28909e-06 DIIS
   @DF-UKS iter   8: -1592.84032933215963   -1.98224e-06   2.12007e-06 DIIS
   @DF-UKS iter   9: -1592.84032961962430   -2.87465e-07   7.97433e-07 DIIS
   @DF-UKS iter  10: -1592.84032965008623   -3.04619e-08   2.57595e-07 DIIS
   @DF-UKS iter  11: -1592.84032965290794   -2.82171e-09   9.03885e-08 DIIS
   @DF-UKS iter  12: -1592.84032965318420   -2.76259e-10   2.46549e-08 DIIS
   @DF-UKS iter  13: -1592.84032965320330   -1.90994e-11   7.07720e-09 DIIS
  Energy and wave function converged.


  ==> Post-Iterations <==

   @Spin Contamination Metric:   5.124692129E-03
   @S^2 Expected:                7.500000000E-01
   @S^2 Observed:                7.551246921E-01
   @S   Expected:                5.000000000E-01
   @S   Observed:                5.000000000E-01

    Orbital Energies [Eh]
    ---------------------

    Alpha Occupied:                                                       

       1Bu   -89.117482     1Ag   -89.117481     2Bu   -89.027638  
       2Ag   -89.027637     3Ag    -8.025025     3Bu    -8.024962  
       4Ag    -7.939714     4Bu    -7.939712     5Ag    -5.934678  
       5Bu    -5.934469     1Au    -5.931813     1Bg    -5.931805  
       6Ag    -5.931040     6Bu    -5.931006     7Ag    -5.851641  
       7Bu    -5.851641     2Bg    -5.845075     2Au    -5.845075  
       8Bu    -5.843037     8Ag    -5.843037     9Ag    -0.809937  
       9Bu    -0.717734    10Ag    -0.595916    10Bu    -0.529877  
      11Ag    -0.354907    11Bu    -0.329183     3Au    -0.326998  
      12Ag    -0.260966     3Bg    -0.246414    12Bu    -0.189064  
      13Ag    -0.158105     4Au    -0.154997     4Bg    -0.125328  

    Alpha Virtual:                                                        

      13Bu     0.134929    14Bu     0.147765    14Ag     0.152543  
      15Ag     0.171186    15Bu     0.185172     5Au     0.187140  
      16Ag     0.195806     5Bg     0.203123     6Bg     0.207086  
      16Bu     0.213326    17Bu     0.221579     6Au     0.228603  
      17Ag     0.232420    18Bu     0.235647    18Ag     0.241333  
      19Ag     0.261888    19Bu     0.316000    20Ag     0.323741  
      20Bu     0.332961     7Au     0.344939     7Bg     0.360843  
      21Ag     0.398345    21Bu     0.399136    22Bu     0.415243  
       8Au     0.422871     8Bg     0.422915    22Ag     0.428161  
      23Bu     0.428593    23Ag     0.441307     9Au     0.458288  
      24Ag     0.487446     9Bg     0.488255    24Bu     0.491391  
      25Ag     0.505804    25Bu     0.518855    10Bg     0.520215  
      10Au     0.525130    26Bu     0.555411    26Ag     0.575659  
      11Au     0.611259    11Bg     0.676356    27Bu     0.684078  
      27Ag     0.691387    12Au     0.697769    28Ag     0.705153  
      28Bu     0.710506    12Bg     0.711222    13Au     0.716359  
      29Bu     0.723293    29Ag     0.728165    30Ag     0.733932  
      14Au     0.742549    30Bu     0.749824    31Ag     0.769381  
      32Ag     0.784913    13Bg     0.787036    31Bu     0.792055  
      33Ag     0.818087    14Bg     0.818748    15Au     0.825753  
      32Bu     0.838294    33Bu     0.845977    34Ag     0.846869  
      15Bg     0.871862    35Ag     0.891394    16Bg     0.891945  
      16Au     0.914376    34Bu     0.926078    17Bg     0.945790  
      17Au     0.948008    36Ag     0.954967    35Bu     0.959297  
      36Bu     0.974695    37Ag     0.984426    18Bg     0.993589  
      38Ag     0.997780    37Bu     1.009397    18Au     1.066585  
      38Bu     1.090649    39Ag     1.149199    39Bu     1.163873  
      19Au     1.168828    19Bg     1.173204    20Au     1.179018  
      40Ag     1.200187    40Bu     1.208783    20Bg     1.264092  
      41Ag     1.276389    41Bu     1.288518    42Ag     1.313919  
      21Au     1.323195    42Bu     1.327954    21Bg     1.343864  
      22Au     1.372039    43Bu     1.378354    22Bg     1.391848  
      43Ag     1.403503    44Ag     1.445366    44Bu     1.520066  
      45Ag     1.533078    45Bu     1.568685    46Ag     1.658654  
      46Bu     1.687348    23Au     1.967087    47Ag     1.973546  
      23Bg     1.995913    47Bu     2.017210    24Bg     2.020496  
      48Ag     2.028473    48Bu     2.029415    24Au     2.042857  
      25Au     2.061129    49Bu     2.064611    50Bu     2.073385  
      49Ag     2.073815    25Bg     2.089365    26Au     2.138668  
      50Ag     2.155622    27Au     2.161059    51Bu     2.172087  
      26Bg     2.189282    51Ag     2.195621    52Bu     2.208508  
      28Au     2.209809    27Bg     2.210610    52Ag     2.229457  
      28Bg     2.232520    29Au     2.243032    53Ag     2.265915  
      53Bu     2.290822    54Ag     2.325461    30Au     2.328999  
      54Bu     2.345769    55Ag     2.352424    55Bu     2.356500  
      29Bg     2.358382    56Bu     2.383879    31Au     2.403809  
      30Bg     2.415603    31Bg     2.436538    57Bu     2.450834  
      56Ag     2.459196    57Ag     2.482292    32Au     2.488166  
      58Ag     2.496819    33Au     2.500889    32Bg     2.509604  
      58Bu     2.514942    59Bu     2.572440    59Ag     2.597505  
      60Bu     2.605147    60Ag     2.672116    61Bu     2.703639  
      33Bg     2.707388    61Ag     2.710419    34Au     2.746366  
      34Bg     2.769955    62Ag     2.806740    62Bu     2.874165  
      63Ag     2.925034    63Bu     3.819538    64Ag     3.846193  
      64Bu     3.884635    65Ag     5.003890    65Bu     5.452759  
      66Ag     5.832535    66Bu     6.007350  

    Beta Occupied:                                                        

       1Bu   -89.115230     1Ag   -89.115229     2Bu   -89.026633  
       2Ag   -89.026633     3Ag    -8.022759     3Bu    -8.022673  
       4Ag    -7.938691     4Bu    -7.938688     5Ag    -5.933191  
       5Bu    -5.932979     6Ag    -5.929548     6Bu    -5.929517  
       1Au    -5.923695     1Bg    -5.923681     7Ag    -5.851094  
       7Bu    -5.851093     8Ag    -5.842342     8Bu    -5.842342  
       2Bg    -5.841312     2Au    -5.841312     9Ag    -0.801981  
       9Bu    -0.710362    10Ag    -0.588885    10Bu    -0.513531  
      11Ag    -0.347875    11Bu    -0.323787     3Au    -0.301181  
      12Ag    -0.254474     3Bg    -0.219557    12Bu    -0.185514  
      13Ag    -0.154858     4Au    -0.113705  

    Beta Virtual:                                                         

       4Bg     0.083451    13Bu     0.134855    14Bu     0.147806  
      14Ag     0.152444    15Ag     0.170781     5Au     0.186383  
      15Bu     0.188500    16Ag     0.195873     5Bg     0.204168  
       6Bg     0.206856    16Bu     0.216210    17Bu     0.221415  
       6Au     0.227703    17Ag     0.232325    18Bu     0.237248  
      18Ag     0.244523    19Ag     0.262670    19Bu     0.316589  
      20Ag     0.324127    20Bu     0.333126     7Au     0.350264  
       7Bg     0.365231    21Ag     0.400135    21Bu     0.400560  
      22Bu     0.417769     8Bg     0.425757    22Ag     0.429240  
       8Au     0.429947    23Bu     0.430250    23Ag     0.443049  
       9Au     0.461232    24Ag     0.488042     9Bg     0.490246  
      24Bu     0.492068    25Ag     0.507009    25Bu     0.519725  
      10Bg     0.520189    10Au     0.527711    26Bu     0.556443  
      26Ag     0.576651    11Au     0.616956    11Bg     0.680320  
      27Bu     0.683903    27Ag     0.692117    12Au     0.703411  
      28Ag     0.706754    28Bu     0.713824    12Bg     0.716537  
      13Au     0.721647    29Bu     0.724888    29Ag     0.730099  
      30Ag     0.735260    14Au     0.749582    30Bu     0.751666  
      31Ag     0.771897    32Ag     0.786923    13Bg     0.789190  
      31Bu     0.793820    33Ag     0.819932    14Bg     0.822301  
      15Au     0.830287    32Bu     0.843028    33Bu     0.852202  
      34Ag     0.854205    15Bg     0.878447    35Ag     0.894085  
      16Bg     0.900986    16Au     0.922499    34Bu     0.928299  
      17Au     0.949786    17Bg     0.951489    36Ag     0.957680  
      35Bu     0.964497    36Bu     0.976475    37Ag     0.987597  
      18Bg     0.995345    38Ag     1.000030    37Bu     1.011241  
      18Au     1.068626    38Bu     1.092956    39Ag     1.151242  
      39Bu     1.165368    19Au     1.172409    19Bg     1.176973  
      20Au     1.183174    40Ag     1.202296    40Bu     1.211427  
      20Bg     1.267250    41Ag     1.277115    41Bu     1.288995  
      42Ag     1.316428    21Au     1.326152    42Bu     1.328933  
      21Bg     1.349613    22Au     1.377197    43Bu     1.380912  
      22Bg     1.397467    43Ag     1.407858    44Ag     1.446318  
      44Bu     1.520824    45Ag     1.538560    45Bu     1.578711  
      46Ag     1.669356    46Bu     1.701982    23Au     1.979671  
      47Ag     1.983601    23Bg     2.010891    47Bu     2.026671  
      24Bg     2.029785    48Bu     2.035747    48Ag     2.038785  
      24Au     2.052790    49Bu     2.071133    25Au     2.071708  
      50Bu     2.075485    49Ag     2.075603    25Bg     2.106659  
      26Au     2.155396    50Ag     2.164618    27Au     2.172404  
      51Bu     2.175692    51Ag     2.201727    26Bg     2.203955  
      52Bu     2.214489    27Bg     2.219233    28Au     2.224235  
      52Ag     2.235067    28Bg     2.244103    29Au     2.266511  
      53Ag     2.268632    53Bu     2.294367    54Ag     2.328403  
      30Au     2.337265    54Bu     2.347423    55Ag     2.359719  
      55Bu     2.362440    29Bg     2.367902    56Bu     2.390904  
      31Au     2.410141    30Bg     2.431909    31Bg     2.446545  
      57Bu     2.456449    56Ag     2.465086    57Ag     2.491383  
      32Au     2.497709    58Ag     2.499812    33Au     2.513845  
      32Bg     2.519693    58Bu     2.524273    59Bu     2.580433  
      59Ag     2.605031    60Bu     2.609744    60Ag     2.674994  
      61Bu     2.707171    61Ag     2.714843    33Bg     2.723948  
      34Au     2.758668    34Bg     2.781989    62Ag     2.808470  
      62Bu     2.875525    63Ag     2.926935    63Bu     3.822135  
      64Ag     3.848799    64Bu     3.887292    65Ag     5.010111  
      65Bu     5.457508    66Ag     5.839047    66Bu     6.015842  

    Final Occupation by Irrep:
             Ag    Bg    Au    Bu 
    DOCC [    13,    3,    4,   12 ]
    SOCC [     0,    1,    0,    0 ]

  @DF-UKS Final Energy: -1592.84032965320330

   => Energetics <=

    Nuclear Repulsion Energy =            310.7834775649930066
    One-Electron Energy =               -2830.5775811566909397
    Two-Electron Energy =                1005.9661390686125060
    DFT Exchange-Correlation Energy =     -79.2766648324194421
    Empirical Dispersion Energy =           0.0000000000000000
    VV10 Nonlocal Energy =                  0.2642997023016259
    Total Energy =                      -1592.8403296532035256

  UHF NO Occupations:
  HONO-2 :    3 Bg 1.9995557
  HONO-1 :    4 Au 1.9985292
  HONO-0 :    4 Bg 1.0000000
  LUNO+0 :    5 Au 0.0014708
  LUNO+1 :    5 Bg 0.0004443
  LUNO+2 :    6 Au 0.0003305
  LUNO+3 :   13 Bu 0.0001339


Computation Completed


Properties will be evaluated at   0.000000,   0.000000,   0.000000 [a0]

Properties computed using the SCF density matrix

  Nuclear Dipole Moment: [e a0]
     X:     0.0000      Y:     0.0000      Z:     0.0000

  Electronic Dipole Moment: [e a0]
     X:     0.0000      Y:     0.0000      Z:     0.0000

  Dipole Moment: [e a0]
     X:     0.0000      Y:     0.0000      Z:     0.0000     Total:     0.0000

  Dipole Moment: [D]
     X:     0.0000      Y:     0.0000      Z:     0.0000     Total:     0.0000


*** tstop() called on c4-9.compute.lan at Thu Feb 11 14:07:21 2021
Module time:
	user time   =     167.64 seconds =       2.79 minutes
	system time =       1.30 seconds =       0.02 minutes
	total time  =        169 seconds =       2.82 minutes
Total time:
	user time   =     505.64 seconds =       8.43 minutes
	system time =       5.02 seconds =       0.08 minutes
	total time  =        512 seconds =       8.53 minutes

  //>>>>>>>>>>>>>>>>>>>>>>>>>>>>>>>>>>>//
  //    Loading displacement 4 of 7    //
  //<<<<<<<<<<<<<<<<<<<<<<<<<<<<<<<<<<<//

*** tstart() called on c4-9.compute.lan
*** at Thu Feb 11 14:07:21 2021

   => Loading Basis Set <=

    Name: AUG-CC-PVTZ
    Role: ORBITAL
    Keyword: BASIS
    atoms 1-4 entry S          line   906 file /apps/gb/PSI4/1.4.0/share/psi4/basis/aug-cc-pvtz.gbs 


         ---------------------------------------------------------
                                   SCF
               by Justin Turney, Rob Parrish, Andy Simmonett
                          and Daniel G. A. Smith
                              UKS Reference
                        1 Threads,  15258 MiB Core
         ---------------------------------------------------------

  ==> Geometry <==

    Molecular point group: c2h
    Full point group: C2h

    Geometry (in Angstrom), charge = -1, multiplicity = 2:

       Center              X                  Y                   Z               Mass       
    ------------   -----------------  -----------------  -----------------  -----------------
         S            0.000000000000     1.025169119820     0.000000000000    31.972071174400
         S            0.000000000000    -1.025169119820     0.000000000000    31.972071174400
         S           -1.954116604900     1.552761125493     0.000000000000    31.972071174400
         S            1.954116604900    -1.552761125493     0.000000000000    31.972071174400

  Running in c2h symmetry.

  Rotational constants: A =      0.43880  B =      0.03947  C =      0.03621 [cm^-1]
  Rotational constants: A =  13154.93788  B =   1183.18344  C =   1085.54700 [MHz]
  Nuclear repulsion =  310.823168154871780

  Charge       = -1
  Multiplicity = 2
  Electrons    = 65
  Nalpha       = 33
  Nbeta        = 32

  ==> Algorithm <==

  SCF Algorithm Type is DF.
  DIIS enabled.
  MOM disabled.
  Fractional occupation disabled.
  Guess Type is SAD.
  Energy threshold   = 1.00e-08
  Density threshold  = 1.00e-08
  Integral threshold = 0.00e+00

  ==> Primary Basis <==

  Basis Set: AUG-CC-PVTZ
    Blend: AUG-CC-PVTZ
    Number of shells: 64
    Number of basis function: 200
    Number of Cartesian functions: 236
    Spherical Harmonics?: true
    Max angular momentum: 3

  ==> DFT Potential <==

   => Composite Functional: WB97M-V <= 

    wB97M-V Hyb-GGA Exchange-Correlation Functional

    N. Mardirossian and M. Head-Gordon, J. Chem. Phys. 144, 214110 (2016)

    Deriv               =              1
    GGA                 =           TRUE
    Meta                =           TRUE

    Exchange Hybrid     =           TRUE
    MP2 Hybrid          =          FALSE

   => Exchange-Correlation Functionals <=

    1.0000   wB97M-V exchange-correlation functional

   => Exact (HF) Exchange <=

    0.8500            HF,LR [omega = 0.3000]
    0.1500               HF 

   => VV10 Non-Local Parameters <=

    VV10 B              =     6.0000E+00
    VV10 C              =     1.0000E-02

   => Molecular Quadrature <=

    Radial Scheme          =       TREUTLER
    Pruning Scheme         =           NONE
    Nuclear Scheme         =       TREUTLER

    BS radius alpha        =              1
    Pruning alpha          =              1
    Radial Points          =             99
    Spherical Points       =            590
    Total Points           =         225784
    Total Blocks           =           1817
    Max Points             =            256
    Max Functions          =            200
    Weights Tolerance      =       1.00E-15

   => Loading Basis Set <=

    Name: (AUG-CC-PVTZ AUX)
    Role: JKFIT
    Keyword: DF_BASIS_SCF
    atoms 1-4 entry S          line   730 file /apps/gb/PSI4/1.4.0/share/psi4/basis/aug-cc-pvtz-jkfit.gbs 

  ==> Pre-Iterations <==

   -------------------------------------------------------
    Irrep   Nso     Nmo     Nalpha   Nbeta   Ndocc  Nsocc
   -------------------------------------------------------
     Ag        66      66       0       0       0       0
     Bg        34      34       0       0       0       0
     Au        34      34       0       0       0       0
     Bu        66      66       0       0       0       0
   -------------------------------------------------------
    Total     200     200      33      32      32       1
   -------------------------------------------------------

  ==> Integral Setup <==

  ==> DiskDFJK: Density-Fitted J/K Matrices <==

    J tasked:                  Yes
    K tasked:                  Yes
    wK tasked:                 Yes
    Omega:               3.000E-01
    OpenMP threads:              1
    Integrals threads:           1
    Memory [MiB]:             8621
    Algorithm:                Core
    Integral Cache:           NONE
    Schwarz Cutoff:          1E-12
    Fitting Condition:       1E-10

   => Auxiliary Basis Set <=

  Basis Set: (AUG-CC-PVTZ AUX)
    Blend: AUG-CC-PVTZ-JKFIT
    Number of shells: 168
    Number of basis function: 584
    Number of Cartesian functions: 720
    Spherical Harmonics?: true
    Max angular momentum: 4

  Cached 100.0% of DFT collocation blocks in 2.757 [GiB].

  Minimum eigenvalue in the overlap matrix is 2.1167079902E-04.
  Using Symmetric Orthogonalization.

  SCF Guess: Superposition of Atomic Densities via on-the-fly atomic UHF.

  ==> Iterations <==

                           Total Energy        Delta E     RMS |[F,P]|

   @DF-UKS iter SAD: -1592.29087671400725   -1.59229e+03   0.00000e+00 
   @DF-UKS iter   1: -1592.72781574198166   -4.36939e-01   4.56216e-03 DIIS
   @DF-UKS iter   2: -1592.77367790124094   -4.58622e-02   3.45590e-03 DIIS
   @DF-UKS iter   3: -1592.83573092671645   -6.20530e-02   8.57224e-04 DIIS
   @DF-UKS iter   4: -1592.84006378995832   -4.33286e-03   1.26234e-04 DIIS
   @DF-UKS iter   5: -1592.84029653324887   -2.32743e-04   4.94959e-05 DIIS
   @DF-UKS iter   6: -1592.84033362383093   -3.70906e-05   1.45396e-05 DIIS
   @DF-UKS iter   7: -1592.84034058330008   -6.95947e-06   6.28989e-06 DIIS
   @DF-UKS iter   8: -1592.84034256614859   -1.98285e-06   2.11976e-06 DIIS
   @DF-UKS iter   9: -1592.84034285331086   -2.87162e-07   7.97841e-07 DIIS
   @DF-UKS iter  10: -1592.84034288371004   -3.03992e-08   2.58354e-07 DIIS
   @DF-UKS iter  11: -1592.84034288653288   -2.82284e-09   9.04385e-08 DIIS
   @DF-UKS iter  12: -1592.84034288681073   -2.77851e-10   2.46334e-08 DIIS
   @DF-UKS iter  13: -1592.84034288682869   -1.79625e-11   7.06917e-09 DIIS
  Energy and wave function converged.


  ==> Post-Iterations <==

   @Spin Contamination Metric:   5.125005231E-03
   @S^2 Expected:                7.500000000E-01
   @S^2 Observed:                7.551250052E-01
   @S   Expected:                5.000000000E-01
   @S   Observed:                5.000000000E-01

    Orbital Energies [Eh]
    ---------------------

    Alpha Occupied:                                                       

       1Bu   -89.117448     1Ag   -89.117447     2Bu   -89.027626  
       2Ag   -89.027625     3Ag    -8.025004     3Bu    -8.024941  
       4Ag    -7.939707     4Bu    -7.939705     5Ag    -5.934657  
       5Bu    -5.934447     1Au    -5.931793     1Bg    -5.931786  
       6Ag    -5.931016     6Bu    -5.930982     7Ag    -5.851634  
       7Bu    -5.851634     2Bg    -5.845067     2Au    -5.845066  
       8Bu    -5.843029     8Ag    -5.843029     9Ag    -0.810071  
       9Bu    -0.717787    10Ag    -0.595984    10Bu    -0.529806  
      11Ag    -0.354964    11Bu    -0.329237     3Au    -0.327073  
      12Ag    -0.260941     3Bg    -0.246427    12Bu    -0.189065  
      13Ag    -0.158117     4Au    -0.155006     4Bg    -0.125264  

    Alpha Virtual:                                                        

      13Bu     0.134929    14Bu     0.147794    14Ag     0.152546  
      15Ag     0.171194    15Bu     0.185257     5Au     0.187137  
      16Ag     0.195805     5Bg     0.203124     6Bg     0.207090  
      16Bu     0.213331    17Bu     0.221591     6Au     0.228602  
      17Ag     0.232441    18Bu     0.235705    18Ag     0.241389  
      19Ag     0.261909    19Bu     0.316007    20Ag     0.323739  
      20Bu     0.332955     7Au     0.344952     7Bg     0.360825  
      21Ag     0.398356    21Bu     0.399144    22Bu     0.415316  
       8Bg     0.422925     8Au     0.422926    22Ag     0.428143  
      23Bu     0.428591    23Ag     0.441303     9Au     0.458252  
      24Ag     0.487443     9Bg     0.488265    24Bu     0.491396  
      25Ag     0.505830    25Bu     0.518920    10Bg     0.520230  
      10Au     0.525143    26Bu     0.555453    26Ag     0.575670  
      11Au     0.611242    11Bg     0.676343    27Bu     0.684065  
      27Ag     0.691394    12Au     0.697743    28Ag     0.705092  
      28Bu     0.710521    12Bg     0.711226    13Au     0.716388  
      29Bu     0.723285    29Ag     0.728157    30Ag     0.733932  
      14Au     0.742558    30Bu     0.749806    31Ag     0.769429  
      32Ag     0.784898    13Bg     0.787048    31Bu     0.792050  
      33Ag     0.818126    14Bg     0.818750    15Au     0.825732  
      32Bu     0.838266    33Bu     0.846028    34Ag     0.846911  
      15Bg     0.871863    35Ag     0.891449    16Bg     0.892059  
      16Au     0.914437    34Bu     0.926159    17Bg     0.945865  
      17Au     0.948035    36Ag     0.955091    35Bu     0.959440  
      36Bu     0.974741    37Ag     0.984446    18Bg     0.993608  
      38Ag     0.997821    37Bu     1.009442    18Au     1.066569  
      38Bu     1.090794    39Ag     1.149292    39Bu     1.164046  
      19Au     1.168849    19Bg     1.173307    20Au     1.179171  
      40Ag     1.200245    40Bu     1.208824    20Bg     1.264044  
      41Ag     1.276445    41Bu     1.288443    42Ag     1.313988  
      21Au     1.323364    42Bu     1.328182    21Bg     1.343974  
      22Au     1.372077    43Bu     1.378449    22Bg     1.391932  
      43Ag     1.403631    44Ag     1.445509    44Bu     1.520259  
      45Ag     1.533147    45Bu     1.568758    46Ag     1.658843  
      46Bu     1.687324    23Au     1.967091    47Ag     1.973510  
      23Bg     1.995899    47Bu     2.017124    24Bg     2.020502  
      48Ag     2.028481    48Bu     2.029483    24Au     2.042921  
      25Au     2.061120    49Bu     2.064613    50Bu     2.073445  
      49Ag     2.073717    25Bg     2.089370    26Au     2.138678  
      50Ag     2.155487    27Au     2.161047    51Bu     2.172061  
      26Bg     2.189280    51Ag     2.195646    52Bu     2.208476  
      28Au     2.209792    27Bg     2.210607    52Ag     2.229404  
      28Bg     2.232440    29Au     2.243029    53Ag     2.265935  
      53Bu     2.290808    54Ag     2.325418    30Au     2.329034  
      54Bu     2.345796    55Ag     2.352461    55Bu     2.356456  
      29Bg     2.358389    56Bu     2.383902    31Au     2.403783  
      30Bg     2.415854    31Bg     2.436606    57Bu     2.450864  
      56Ag     2.459265    57Ag     2.482373    32Au     2.488310  
      58Ag     2.497065    33Au     2.501030    32Bg     2.509693  
      58Bu     2.515189    59Bu     2.572507    59Ag     2.597867  
      60Bu     2.605377    60Ag     2.672352    61Bu     2.704101  
      33Bg     2.707853    61Ag     2.710940    34Au     2.746570  
      34Bg     2.770130    62Ag     2.807204    62Bu     2.874318  
      63Ag     2.925205    63Bu     3.820193    64Ag     3.846490  
      64Bu     3.885046    65Ag     5.005379    65Bu     5.452955  
      66Ag     5.833282    66Bu     6.007235  

    Beta Occupied:                                                        

       1Bu   -89.115196     1Ag   -89.115195     2Bu   -89.026621  
       2Ag   -89.026621     3Ag    -8.022738     3Bu    -8.022652  
       4Ag    -7.938685     4Bu    -7.938682     5Ag    -5.933170  
       5Bu    -5.932957     6Ag    -5.929524     6Bu    -5.929493  
       1Au    -5.923674     1Bg    -5.923660     7Ag    -5.851087  
       7Bu    -5.851086     8Ag    -5.842335     8Bu    -5.842335  
       2Bg    -5.841305     2Au    -5.841305     9Ag    -0.802115  
       9Bu    -0.710416    10Ag    -0.588960    10Bu    -0.513458  
      11Ag    -0.347929    11Bu    -0.323840     3Au    -0.301260  
      12Ag    -0.254448     3Bg    -0.219576    12Bu    -0.185516  
      13Ag    -0.154871     4Au    -0.113736  

    Beta Virtual:                                                         

       4Bg     0.083531    13Bu     0.134854    14Bu     0.147830  
      14Ag     0.152445    15Ag     0.170788     5Au     0.186378  
      15Bu     0.188579    16Ag     0.195872     5Bg     0.204171  
       6Bg     0.206856    16Bu     0.216212    17Bu     0.221424  
       6Au     0.227699    17Ag     0.232337    18Bu     0.237320  
      18Ag     0.244584    19Ag     0.262694    19Bu     0.316595  
      20Ag     0.324125    20Bu     0.333119     7Au     0.350282  
       7Bg     0.365214    21Ag     0.400145    21Bu     0.400568  
      22Bu     0.417844     8Bg     0.425768    22Ag     0.429222  
       8Au     0.429999    23Bu     0.430247    23Ag     0.443044  
       9Au     0.461199    24Ag     0.488039     9Bg     0.490257  
      24Bu     0.492070    25Ag     0.507036    25Bu     0.519789  
      10Bg     0.520203    10Au     0.527727    26Bu     0.556486  
      26Ag     0.576664    11Au     0.616938    11Bg     0.680306  
      27Bu     0.683892    27Ag     0.692121    12Au     0.703382  
      28Ag     0.706692    28Bu     0.713838    12Bg     0.716541  
      13Au     0.721676    29Bu     0.724884    29Ag     0.730091  
      30Ag     0.735256    14Au     0.749596    30Bu     0.751648  
      31Ag     0.771944    32Ag     0.786911    13Bg     0.789202  
      31Bu     0.793811    33Ag     0.819966    14Bg     0.822301  
      15Au     0.830265    32Bu     0.842979    33Bu     0.852278  
      34Ag     0.854252    15Bg     0.878439    35Ag     0.894143  
      16Bg     0.901107    16Au     0.922560    34Bu     0.928373  
      17Au     0.949814    17Bg     0.951562    36Ag     0.957802  
      35Bu     0.964608    36Bu     0.976554    37Ag     0.987616  
      18Bg     0.995365    38Ag     1.000072    37Bu     1.011285  
      18Au     1.068610    38Bu     1.093100    39Ag     1.151337  
      39Bu     1.165541    19Au     1.172430    19Bg     1.177076  
      20Au     1.183330    40Ag     1.202354    40Bu     1.211468  
      20Bg     1.267204    41Ag     1.277172    41Bu     1.288921  
      42Ag     1.316497    21Au     1.326326    42Bu     1.329160  
      21Bg     1.349730    22Au     1.377233    43Bu     1.381010  
      22Bg     1.397554    43Ag     1.407988    44Ag     1.446457  
      44Bu     1.521019    45Ag     1.538632    45Bu     1.578782  
      46Ag     1.669558    46Bu     1.701951    23Au     1.979670  
      47Ag     1.983567    23Bg     2.010883    47Bu     2.026588  
      24Bg     2.029785    48Bu     2.035822    48Ag     2.038790  
      24Au     2.052848    49Bu     2.071148    25Au     2.071683  
      49Ag     2.075503    50Bu     2.075535    25Bg     2.106663  
      26Au     2.155436    50Ag     2.164486    27Au     2.172389  
      51Bu     2.175667    51Ag     2.201765    26Bg     2.203959  
      52Bu     2.214453    27Bg     2.219210    28Au     2.224208  
      52Ag     2.235003    28Bg     2.244040    29Au     2.266511  
      53Ag     2.268645    53Bu     2.294350    54Ag     2.328360  
      30Au     2.337299    54Bu     2.347447    55Ag     2.359756  
      55Bu     2.362391    29Bg     2.367904    56Bu     2.390938  
      31Au     2.410111    30Bg     2.432160    31Bg     2.446595  
      57Bu     2.456472    56Ag     2.465152    57Ag     2.491459  
      32Au     2.497861    58Ag     2.500043    33Au     2.513984  
      32Bg     2.519799    58Bu     2.524519    59Bu     2.580509  
      59Ag     2.605408    60Bu     2.609976    60Ag     2.675240  
      61Bu     2.707634    61Ag     2.715362    33Bg     2.724423  
      34Au     2.758873    34Bg     2.782163    62Ag     2.808932  
      62Bu     2.875677    63Ag     2.927109    63Bu     3.822791  
      64Ag     3.849098    64Bu     3.887708    65Ag     5.011596  
      65Bu     5.457701    66Ag     5.839798    66Bu     6.015730  

    Final Occupation by Irrep:
             Ag    Bg    Au    Bu 
    DOCC [    13,    3,    4,   12 ]
    SOCC [     0,    1,    0,    0 ]

  @DF-UKS Final Energy: -1592.84034288682869

   => Energetics <=

    Nuclear Repulsion Energy =            310.8231681548717802
    One-Electron Energy =               -2830.6567229400907308
    Two-Electron Energy =                1006.0058872289996543
    DFT Exchange-Correlation Energy =     -79.2769739078810574
    Empirical Dispersion Energy =           0.0000000000000000
    VV10 Nonlocal Energy =                  0.2642985772716004
    Total Energy =                      -1592.8403428868286937

  UHF NO Occupations:
  HONO-2 :    3 Bg 1.9995558
  HONO-1 :    4 Au 1.9985288
  HONO-0 :    4 Bg 1.0000000
  LUNO+0 :    5 Au 0.0014712
  LUNO+1 :    5 Bg 0.0004442
  LUNO+2 :    6 Au 0.0003302
  LUNO+3 :   13 Bu 0.0001341


Computation Completed


Properties will be evaluated at   0.000000,   0.000000,   0.000000 [a0]

Properties computed using the SCF density matrix

  Nuclear Dipole Moment: [e a0]
     X:     0.0000      Y:     0.0000      Z:     0.0000

  Electronic Dipole Moment: [e a0]
     X:     0.0000      Y:     0.0000      Z:     0.0000

  Dipole Moment: [e a0]
     X:     0.0000      Y:     0.0000      Z:     0.0000     Total:     0.0000

  Dipole Moment: [D]
     X:     0.0000      Y:     0.0000      Z:     0.0000     Total:     0.0000


*** tstop() called on c4-9.compute.lan at Thu Feb 11 14:10:12 2021
Module time:
	user time   =     168.98 seconds =       2.82 minutes
	system time =       1.28 seconds =       0.02 minutes
	total time  =        171 seconds =       2.85 minutes
Total time:
	user time   =     674.63 seconds =      11.24 minutes
	system time =       6.30 seconds =       0.10 minutes
	total time  =        683 seconds =      11.38 minutes

  //>>>>>>>>>>>>>>>>>>>>>>>>>>>>>>>>>>>//
  //    Loading displacement 5 of 7    //
  //<<<<<<<<<<<<<<<<<<<<<<<<<<<<<<<<<<<//

*** tstart() called on c4-9.compute.lan
*** at Thu Feb 11 14:10:12 2021

   => Loading Basis Set <=

    Name: AUG-CC-PVTZ
    Role: ORBITAL
    Keyword: BASIS
    atoms 1-4 entry S          line   906 file /apps/gb/PSI4/1.4.0/share/psi4/basis/aug-cc-pvtz.gbs 


         ---------------------------------------------------------
                                   SCF
               by Justin Turney, Rob Parrish, Andy Simmonett
                          and Daniel G. A. Smith
                              UKS Reference
                        1 Threads,  15258 MiB Core
         ---------------------------------------------------------

  ==> Geometry <==

    Molecular point group: c2h
    Full point group: C2h

    Geometry (in Angstrom), charge = -1, multiplicity = 2:

       Center              X                  Y                   Z               Mass       
    ------------   -----------------  -----------------  -----------------  -----------------
         S            0.000000000000     1.025830880180     0.000000000000    31.972071174400
         S            0.000000000000    -1.025830880180     0.000000000000    31.972071174400
         S           -1.954116604900     1.552761125493     0.000000000000    31.972071174400
         S            1.954116604900    -1.552761125493     0.000000000000    31.972071174400

  Running in c2h symmetry.

  Rotational constants: A =      0.43828  B =      0.03946  C =      0.03620 [cm^-1]
  Rotational constants: A =  13139.22755  B =   1183.07028  C =   1085.34467 [MHz]
  Nuclear repulsion =  310.778294117879454

  Charge       = -1
  Multiplicity = 2
  Electrons    = 65
  Nalpha       = 33
  Nbeta        = 32

  ==> Algorithm <==

  SCF Algorithm Type is DF.
  DIIS enabled.
  MOM disabled.
  Fractional occupation disabled.
  Guess Type is SAD.
  Energy threshold   = 1.00e-08
  Density threshold  = 1.00e-08
  Integral threshold = 0.00e+00

  ==> Primary Basis <==

  Basis Set: AUG-CC-PVTZ
    Blend: AUG-CC-PVTZ
    Number of shells: 64
    Number of basis function: 200
    Number of Cartesian functions: 236
    Spherical Harmonics?: true
    Max angular momentum: 3

  ==> DFT Potential <==

   => Composite Functional: WB97M-V <= 

    wB97M-V Hyb-GGA Exchange-Correlation Functional

    N. Mardirossian and M. Head-Gordon, J. Chem. Phys. 144, 214110 (2016)

    Deriv               =              1
    GGA                 =           TRUE
    Meta                =           TRUE

    Exchange Hybrid     =           TRUE
    MP2 Hybrid          =          FALSE

   => Exchange-Correlation Functionals <=

    1.0000   wB97M-V exchange-correlation functional

   => Exact (HF) Exchange <=

    0.8500            HF,LR [omega = 0.3000]
    0.1500               HF 

   => VV10 Non-Local Parameters <=

    VV10 B              =     6.0000E+00
    VV10 C              =     1.0000E-02

   => Molecular Quadrature <=

    Radial Scheme          =       TREUTLER
    Pruning Scheme         =           NONE
    Nuclear Scheme         =       TREUTLER

    BS radius alpha        =              1
    Pruning alpha          =              1
    Radial Points          =             99
    Spherical Points       =            590
    Total Points           =         225786
    Total Blocks           =           1821
    Max Points             =            256
    Max Functions          =            200
    Weights Tolerance      =       1.00E-15

   => Loading Basis Set <=

    Name: (AUG-CC-PVTZ AUX)
    Role: JKFIT
    Keyword: DF_BASIS_SCF
    atoms 1-4 entry S          line   730 file /apps/gb/PSI4/1.4.0/share/psi4/basis/aug-cc-pvtz-jkfit.gbs 

  ==> Pre-Iterations <==

   -------------------------------------------------------
    Irrep   Nso     Nmo     Nalpha   Nbeta   Ndocc  Nsocc
   -------------------------------------------------------
     Ag        66      66       0       0       0       0
     Bg        34      34       0       0       0       0
     Au        34      34       0       0       0       0
     Bu        66      66       0       0       0       0
   -------------------------------------------------------
    Total     200     200      33      32      32       1
   -------------------------------------------------------

  ==> Integral Setup <==

  ==> DiskDFJK: Density-Fitted J/K Matrices <==

    J tasked:                  Yes
    K tasked:                  Yes
    wK tasked:                 Yes
    Omega:               3.000E-01
    OpenMP threads:              1
    Integrals threads:           1
    Memory [MiB]:             8620
    Algorithm:                Core
    Integral Cache:           NONE
    Schwarz Cutoff:          1E-12
    Fitting Condition:       1E-10

   => Auxiliary Basis Set <=

  Basis Set: (AUG-CC-PVTZ AUX)
    Blend: AUG-CC-PVTZ-JKFIT
    Number of shells: 168
    Number of basis function: 584
    Number of Cartesian functions: 720
    Spherical Harmonics?: true
    Max angular momentum: 4

  Cached 100.0% of DFT collocation blocks in 2.757 [GiB].

  Minimum eigenvalue in the overlap matrix is 2.1188828500E-04.
  Using Symmetric Orthogonalization.

  SCF Guess: Superposition of Atomic Densities via on-the-fly atomic UHF.

  ==> Iterations <==

[...]

      26Ap     0.135148    27Ap     0.148765    28Ap     0.152661  
      29Ap     0.171650    30Ap     0.184206     9App    0.186993  
      31Ap     0.195700    10App    0.203062    11App    0.207308  
      32Ap     0.216979    33Ap     0.222233    12App    0.228739  
      34Ap     0.233855    35Ap     0.236242    36Ap     0.245866  
      37Ap     0.263194    38Ap     0.315954    39Ap     0.324270  
      40Ap     0.333227    13App    0.344842    14App    0.361333  
      41Ap     0.397703    42Ap     0.399384    43Ap     0.418982  
      15App    0.422983    16App    0.425626    44Ap     0.427633  
      45Ap     0.427762    46Ap     0.442581    17App    0.456977  
      47Ap     0.486357    18App    0.489082    48Ap     0.491056  
      49Ap     0.508082    19App    0.520803    50Ap     0.520892  
      20App    0.524677    51Ap     0.557304    52Ap     0.576601  
      21App    0.611840    22App    0.674793    53Ap     0.683158  
      54Ap     0.690941    23App    0.698831    55Ap     0.705400  
      56Ap     0.712193    24App    0.712436    25App    0.717703  
      57Ap     0.722952    58Ap     0.726835    59Ap     0.734447  
      26App    0.742483    60Ap     0.749197    61Ap     0.769255  
      62Ap     0.783875    27App    0.786389    63Ap     0.788792  
      64Ap     0.817151    28App    0.817719    29App    0.824811  
      65Ap     0.838117    66Ap     0.847265    67Ap     0.850994  
      30App    0.872166    68Ap     0.895546    31App    0.896165  
      32App    0.918606    69Ap     0.928238    33App    0.947814  
      34App    0.948192    70Ap     0.959245    71Ap     0.960987  
      72Ap     0.974563    73Ap     0.989313    35App    0.994787  
      74Ap     0.999810    75Ap     1.011490    36App    1.066213  
      76Ap     1.097043    77Ap     1.152676    78Ap     1.168469  
      37App    1.169121    38App    1.179344    39App    1.183652  
      79Ap     1.203146    80Ap     1.210577    40App    1.261651  
      81Ap     1.283909    82Ap     1.286168    83Ap     1.318006  
      41App    1.329923    84Ap     1.334778    42App    1.346079  
      43App    1.374627    85Ap     1.380799    44App    1.396359  
      86Ap     1.406412    87Ap     1.451819    88Ap     1.527170  
      89Ap     1.535909    90Ap     1.571734    91Ap     1.661557  
      92Ap     1.687080    45App    1.968643    93Ap     1.971346  
      46App    1.995327    94Ap     2.015726    47App    2.020318  
      95Ap     2.028021    96Ap     2.029068    48App    2.045822  
      49App    2.056312    97Ap     2.062229    98Ap     2.068623  
      99Ap     2.085411    50App    2.093851    51App    2.138962  
     100Ap     2.153913   101Ap     2.163692    52App    2.164126  
      53App    2.189023   102Ap     2.196517   103Ap     2.206947  
      54App    2.207796    55App    2.208166   104Ap     2.228198  
      56App    2.232525    57App    2.243515   105Ap     2.266055  
     106Ap     2.289136   107Ap     2.325662    58App    2.328195  
     108Ap     2.344208   109Ap     2.352175   110Ap     2.353162  
      59App    2.357086   111Ap     2.384850    60App    2.399644  
      61App    2.414827    62App    2.446166   112Ap     2.454107  
     113Ap     2.465624   114Ap     2.485585    63App    2.494088  
     115Ap     2.498675    64App    2.510499    65App    2.519355  
     116Ap     2.525341   117Ap     2.578822   118Ap     2.596190  
     119Ap     2.614698   120Ap     2.676580    66App    2.704454  
     121Ap     2.741246   122Ap     2.742478    67App    2.766345  
      68App    2.785820   123Ap     2.831353   124Ap     2.882489  
     125Ap     2.908387   126Ap     3.820414   127Ap     3.864861  
     128Ap     3.906247   129Ap     5.070518   130Ap     5.458592  
     131Ap     5.843786   132Ap     6.000230  

    Beta Occupied:                                                        

       1Ap   -89.112663     2Ap   -89.112545     3Ap   -89.026247  
       4Ap   -89.026081     5Ap    -8.020452     6Ap    -8.020308  
       7Ap    -7.938763     8Ap    -7.938587     9Ap    -5.930860  
      10Ap    -5.930627    11Ap    -5.927206    12Ap    -5.927087  
       1App   -5.921428     2App   -5.921310    13Ap    -5.851006  
      14Ap    -5.850838    15Ap    -5.842495    16Ap    -5.842322  
       3App   -5.841372     4App   -5.841195    17Ap    -0.802536  
      18Ap    -0.716768    19Ap    -0.589567    20Ap    -0.509933  
      21Ap    -0.348485    22Ap    -0.323544     5App   -0.301445  
      23Ap    -0.255729     6App   -0.222997    24Ap    -0.188114  
      25Ap    -0.153038     7App   -0.112285  

    Beta Virtual:                                                         

       8App    0.086250    26Ap     0.135017    27Ap     0.148757  
      28Ap     0.152494    29Ap     0.171247     9App    0.186170  
      30Ap     0.187547    31Ap     0.195734    10App    0.204243  
      11App    0.206903    32Ap     0.218621    33Ap     0.223013  
      12App    0.227813    34Ap     0.233506    35Ap     0.238050  
      36Ap     0.248890    37Ap     0.264326    38Ap     0.316510  
      39Ap     0.324724    40Ap     0.333418    13App    0.350207  
      14App    0.365714    41Ap     0.399142    42Ap     0.401162  
      43Ap     0.421549    15App    0.425943    44Ap     0.428719  
      45Ap     0.429400    16App    0.432608    46Ap     0.444343  
      17App    0.460029    47Ap     0.486968    18App    0.491109  
      48Ap     0.491692    49Ap     0.509334    19App    0.520707  
      50Ap     0.521741    20App    0.527330    51Ap     0.558379  
      52Ap     0.577583    21App    0.617540    22App    0.678753  
      53Ap     0.683033    54Ap     0.691816    23App    0.704239  
      55Ap     0.706825    56Ap     0.715476    24App    0.717989  
      25App    0.722871    57Ap     0.724694    58Ap     0.728716  
      59Ap     0.735640    26App    0.749723    60Ap     0.751084  
      61Ap     0.771807    62Ap     0.786126    27App    0.788642  
      63Ap     0.790433    64Ap     0.818766    28App    0.821284  
      29App    0.829482    65Ap     0.842455    66Ap     0.854723  
      67Ap     0.857862    30App    0.878803    68Ap     0.898486  
      31App    0.905045    32App    0.926630    69Ap     0.930270  
      33App    0.949782    34App    0.953786    70Ap     0.961835  
      71Ap     0.965362    72Ap     0.976944    73Ap     0.992521  
      35App    0.996659    74Ap     1.002020    75Ap     1.013472  
      36App    1.068319    76Ap     1.099432    77Ap     1.154787  
      78Ap     1.169983    37App    1.172863    38App    1.183109  
      39App    1.187667    79Ap     1.205253    80Ap     1.213239  
      40App    1.264917    81Ap     1.284714    82Ap     1.286687  
      83Ap     1.320548    41App    1.333040    84Ap     1.335786  
      42App    1.351711    43App    1.379773    85Ap     1.383393  
      44App    1.402133    86Ap     1.410663    87Ap     1.452512  
      88Ap     1.528037    89Ap     1.541765    90Ap     1.581619  
      91Ap     1.672048    92Ap     1.701468    45App    1.981251  
      93Ap     1.981528    46App    2.010142    94Ap     2.024870  
      47App    2.029710    95Ap     2.034938    96Ap     2.038481  
      48App    2.055710    49App    2.066375    97Ap     2.070358  
      98Ap     2.070591    99Ap     2.086774    50App    2.110689  
      51App    2.157165   100Ap     2.162223   101Ap     2.167324  
      52App    2.175001   102Ap     2.203327    53App    2.203705  
     103Ap     2.212878    54App    2.216292    55App    2.221064  
     104Ap     2.234087    56App    2.244872    57App    2.267113  
     105Ap     2.268459   106Ap     2.292579   107Ap     2.328555  
      58App    2.336643   108Ap     2.346314   109Ap     2.358754  
     110Ap     2.359658    59App    2.366624   111Ap     2.392272  
      60App    2.406136    61App    2.431431    62App    2.455815  
     112Ap     2.460157   113Ap     2.471661   114Ap     2.492366  
      63App    2.503451   115Ap     2.503590    64App    2.523707  
      65App    2.529874   116Ap     2.534181   117Ap     2.586635  
     118Ap     2.603670   119Ap     2.618972   120Ap     2.679440  
      66App    2.720630   121Ap     2.745049   122Ap     2.747105  
      67App    2.778809    68App    2.798062   123Ap     2.833076  
     124Ap     2.883822   125Ap     2.910301   126Ap     3.823008  
     127Ap     3.867528   128Ap     3.908886   129Ap     5.076694  
     130Ap     5.463407   131Ap     5.850342   132Ap     6.008636  

    Final Occupation by Irrep:
             Ap   App 
    DOCC [    25,    7 ]
    SOCC [     0,    1 ]

  @DF-UKS Final Energy: -1592.84086678464041

   => Energetics <=

    Nuclear Repulsion Energy =            311.7156038835542518
    One-Electron Energy =               -2832.4723876231055328
    Two-Electron Energy =                1006.9402357577494058
    DFT Exchange-Correlation Energy =     -79.2886155047324905
    Empirical Dispersion Energy =           0.0000000000000000
    VV10 Nonlocal Energy =                  0.2642967018942001
    Total Energy =                      -1592.8408667846401841

  UHF NO Occupations:
  HONO-2 :    6App 1.9995590
  HONO-1 :    7App 1.9984691
  HONO-0 :    8App 1.0000000
  LUNO+0 :    9App 0.0015309
  LUNO+1 :   10App 0.0004410
  LUNO+2 :   11App 0.0003205
  LUNO+3 :   26 Ap 0.0001345


Computation Completed


Properties will be evaluated at   0.000000,   0.000000,   0.000000 [a0]

Properties computed using the SCF density matrix

  Nuclear Dipole Moment: [e a0]
     X:     0.0000      Y:    -0.0000      Z:     0.0000

  Electronic Dipole Moment: [e a0]
     X:    -0.0032      Y:     0.0026      Z:     0.0000

  Dipole Moment: [e a0]
     X:    -0.0032      Y:     0.0026      Z:     0.0000     Total:     0.0041

  Dipole Moment: [D]
     X:    -0.0081      Y:     0.0067      Z:     0.0000     Total:     0.0105


*** tstop() called on c4-9.compute.lan at Thu Feb 11 17:33:26 2021
Module time:
	user time   =     282.65 seconds =       4.71 minutes
	system time =       2.13 seconds =       0.04 minutes
	total time  =        286 seconds =       4.77 minutes
Total time:
	user time   =   12728.18 seconds =     212.14 minutes
	system time =     111.65 seconds =       1.86 minutes
	total time  =      12877 seconds =     214.62 minutes

         ----------------------------------------------------------
                                   FINDIF
                     R. A. King and Jonathon Misiewicz
         ---------------------------------------------------------

  Computing second-derivative from energies using projected, 
  symmetry-adapted, cartesian coordinates.

  18 energies passed in, including the reference geometry.
    Using 3-point formula.
    Energy without displacement: -1592.8408668332
    Check energies below for precision!
    0: -1        :     -1592.8408667188
    0: 1         :     -1592.8408667231
    1: -1        :     -1592.8408666997
    1: 1         :     -1592.8408667046
    2: -1        :     -1592.8408667625
    2: 1         :     -1592.8408667576
    0: 1, 1: 1   :     -1592.8408665787
    0: -1, 1: -1 :     -1592.8408665675
    0: 1, 2: 1   :     -1592.8408667765
    0: -1, 2: -1 :     -1592.8408667830
    1: 1, 2: 1   :     -1592.8408666016
    1: -1, 2: -1 :     -1592.8408665985
    3: -1        :     -1592.8408668303
    4: -1        :     -1592.8408667327
    5: -1        :     -1592.8408668129
    4: 1, 5: 1   :     -1592.8408667840
    4: -1, 5: -1 :     -1592.8408667846

-------------------------------------------------------------


  ==> Harmonic Vibrational Analysis <==

  non-mass-weighted Hessian:       Symmetric? True   Hermitian? True   Lin Dep Dim?  6 (0)
  projection of translations (True) and rotations (True) removed 6 degrees of freedom (6)
  total projector:                 Symmetric? True   Hermitian? True   Lin Dep Dim?  6 (6)
  mass-weighted Hessian:           Symmetric? True   Hermitian? True   Lin Dep Dim?  6 (0)
  pre-proj  low-frequency mode:    0.0000i [cm^-1]
  pre-proj  low-frequency mode:    0.0000i [cm^-1]
  pre-proj  low-frequency mode:    0.0000  [cm^-1]
  pre-proj  low-frequency mode:    0.0000  [cm^-1]
  pre-proj  low-frequency mode:    0.0000  [cm^-1]
  pre-proj  low-frequency mode:    0.0000  [cm^-1]
  pre-proj  low-frequency mode:   77.4199  [cm^-1]
  pre-proj  all modes:['0.0000i' '0.0000i' '0.0000' '0.0000' '0.0000' '0.0000' '77.4199'
 '117.2797' '212.4324' '491.3829' '531.0316' '584.4744']
  projected mass-weighted Hessian: Symmetric? True   Hermitian? True   Lin Dep Dim?  6 (6)
  post-proj low-frequency mode:    0.0000i [cm^-1] (TR)
  post-proj low-frequency mode:    0.0000i [cm^-1] (TR)
  post-proj low-frequency mode:    0.0000i [cm^-1] (TR)
  post-proj low-frequency mode:    0.0000i [cm^-1] (TR)
  post-proj low-frequency mode:    0.0000  [cm^-1] (TR)
  post-proj low-frequency mode:    0.0000  [cm^-1] (TR)
  post-proj low-frequency mode:   77.4199  [cm^-1] (V)
  post-proj  all modes:['0.0000i' '0.0000i' '0.0000i' '0.0000i' '0.0000' '0.0000' '77.4199'
 '117.2797' '212.4324' '491.3829' '531.0316' '584.4744']

  Vibration                       7                   8                   9           
  Freq [cm^-1]                 77.4199             117.2797            212.4324       
  Irrep                           Au                  Bu                  Ag          
  Reduced mass [u]             31.9721             31.9721             31.9721        
  Force const [mDyne/A]         0.1129              0.2591              0.8501        
  Turning point v=0 [a0]        0.2205              0.1792              0.1331        
  RMS dev v=0 [a0 u^1/2]        0.8818              0.7164              0.5323        
  Char temp [K]                111.3900            168.7394            305.6430       
  ----------------------------------------------------------------------------------
      1   S               -0.00 -0.00  0.50    0.18  0.47  0.00   -0.39  0.11  0.00   
      2   S               -0.00 -0.00  0.50    0.18  0.47  0.00    0.39 -0.11 -0.00   
      3   S                0.00  0.00 -0.50   -0.18 -0.47 -0.00   -0.33  0.48 -0.00   
      4   S               -0.00 -0.00 -0.50   -0.18 -0.47 -0.00    0.33 -0.48  0.00   

  Vibration                       10                  11                  12          
  Freq [cm^-1]                 491.3829            531.0316            584.4744       
  Irrep                           Bu                  Ag                  Ag          
  Reduced mass [u]             31.9721             31.9721             31.9721        
  Force const [mDyne/A]         4.5484              5.3120              6.4351        
  Turning point v=0 [a0]        0.0875              0.0842              0.0803        
  RMS dev v=0 [a0 u^1/2]        0.3500              0.3367              0.3209        
  Char temp [K]                706.9906            764.0362            840.9285       
  ----------------------------------------------------------------------------------
      1   S                0.47 -0.18  0.00    0.09  0.70  0.00    0.52 -0.05 -0.00   
      2   S                0.47 -0.18 -0.00   -0.09 -0.70 -0.00   -0.52  0.05  0.00   
      3   S               -0.47  0.18 -0.00    0.02 -0.07  0.00   -0.46  0.11  0.00   
      4   S               -0.47  0.18  0.00   -0.02  0.07 -0.00    0.46 -0.11 -0.00   

  ==> Thermochemistry Components <==

  Entropy, S
    Electronic S            1.377 [cal/(mol K)]        5.763 [J/(mol K)]       0.00219507 [mEh/K] (multiplicity = 2)
    Translational S        40.451 [cal/(mol K)]      169.248 [J/(mol K)]       0.06446314 [mEh/K] (mol. weight = 127.8883 [u], P = 101325.00 [Pa])
    Rotational S           25.938 [cal/(mol K)]      108.523 [J/(mol K)]       0.04133437 [mEh/K] (symmetry no. = 2)
    Vibrational S          10.865 [cal/(mol K)]       45.458 [J/(mol K)]       0.01731398 [mEh/K]
  Total S                  78.631 [cal/(mol K)]      328.992 [J/(mol K)]       0.12530656 [mEh/K]
  Correction S              0.000 [cal/(mol K)]        0.000 [J/(mol K)]       0.00000000 [mEh/K]

  Constant volume heat capacity, Cv
    Electronic Cv           0.000 [cal/(mol K)]        0.000 [J/(mol K)]       0.00000000 [mEh/K]
    Translational Cv        2.981 [cal/(mol K)]       12.472 [J/(mol K)]       0.00475022 [mEh/K]
    Rotational Cv           2.981 [cal/(mol K)]       12.472 [J/(mol K)]       0.00475022 [mEh/K]
    Vibrational Cv          9.237 [cal/(mol K)]       38.646 [J/(mol K)]       0.01471949 [mEh/K]
  Total Cv                 15.198 [cal/(mol K)]       63.589 [J/(mol K)]       0.02421992 [mEh/K]
  Correction Cv             0.000 [cal/(mol K)]        0.000 [J/(mol K)]       0.00000000 [mEh/K]

  Constant pressure heat capacity, Cp
    Electronic Cp           0.000 [cal/(mol K)]        0.000 [J/(mol K)]       0.00000000 [mEh/K]
    Translational Cp        4.968 [cal/(mol K)]       20.786 [J/(mol K)]       0.00791703 [mEh/K]
    Rotational Cp           2.981 [cal/(mol K)]       12.472 [J/(mol K)]       0.00475022 [mEh/K]
    Vibrational Cp          9.237 [cal/(mol K)]       38.646 [J/(mol K)]       0.01471949 [mEh/K]
  Total Cp                 17.185 [cal/(mol K)]       71.904 [J/(mol K)]       0.02738673 [mEh/K]
  Correction Cp             0.000 [cal/(mol K)]        0.000 [J/(mol K)]       0.00000000 [mEh/K]

  ==> Thermochemistry Energy Analysis <==

  Raw electronic energy, E0
  Total E0, Electronic energy at well bottom at 0 [K]                -1592.84086683 [Eh]

  Zero-point energy, ZPE_vib = Sum_i nu_i / 2
    Electronic ZPE          0.000 [kcal/mol]        0.000 [kJ/mol]       0.00000000 [Eh]
    Translational ZPE       0.000 [kcal/mol]        0.000 [kJ/mol]       0.00000000 [Eh]
    Rotational ZPE          0.000 [kcal/mol]        0.000 [kJ/mol]       0.00000000 [Eh]
    Vibrational ZPE         2.879 [kcal/mol]       12.047 [kJ/mol]       0.00458828 [Eh]        1007.010 [cm^-1]
  Correction ZPE            2.879 [kcal/mol]       12.047 [kJ/mol]       0.00458828 [Eh]        1007.010 [cm^-1]
  Total ZPE, Electronic energy at 0 [K]                              -1592.83627856 [Eh]

  Thermal Energy, E (includes ZPE)
    Electronic E            0.000 [kcal/mol]        0.000 [kJ/mol]       0.00000000 [Eh]
    Translational E         0.889 [kcal/mol]        3.718 [kJ/mol]       0.00141628 [Eh]
    Rotational E            0.889 [kcal/mol]        3.718 [kJ/mol]       0.00141628 [Eh]
    Vibrational E           4.526 [kcal/mol]       18.935 [kJ/mol]       0.00721203 [Eh]
  Correction E              6.303 [kcal/mol]       26.372 [kJ/mol]       0.01004458 [Eh]
  Total E, Electronic energy at  298.15 [K]                          -1592.83082225 [Eh]

  Enthalpy, H_trans = E_trans + k_B * T
    Electronic H            0.000 [kcal/mol]        0.000 [kJ/mol]       0.00000000 [Eh]
    Translational H         1.481 [kcal/mol]        6.197 [kJ/mol]       0.00236046 [Eh]
    Rotational H            0.889 [kcal/mol]        3.718 [kJ/mol]       0.00141628 [Eh]
    Vibrational H           4.526 [kcal/mol]       18.935 [kJ/mol]       0.00721203 [Eh]
  Correction H              6.896 [kcal/mol]       28.851 [kJ/mol]       0.01098876 [Eh]
  Total H, Enthalpy at  298.15 [K]                                   -1592.82987807 [Eh]

  Gibbs free energy, G = H - T * S
    Electronic G           -0.411 [kcal/mol]       -1.718 [kJ/mol]      -0.00065446 [Eh]
    Translational G       -10.579 [kcal/mol]      -44.264 [kJ/mol]      -0.01685922 [Eh]
    Rotational G           -6.845 [kcal/mol]      -28.638 [kJ/mol]      -0.01090757 [Eh]
    Vibrational G           1.286 [kcal/mol]        5.382 [kJ/mol]       0.00204986 [Eh]
  Correction G            -16.548 [kcal/mol]      -69.238 [kJ/mol]      -0.02637139 [Eh]
  Total G, Free enthalpy at  298.15 [K]                              -1592.86723822 [Eh]

    Psi4 stopped on: Thursday, 11 February 2021 05:33PM
    Psi4 wall time for execution: 3:34:37.00

*** Psi4 exiting successfully. Buy a developer a beer!
